s 1.041612000 _0_ AGT  --- 0 tcp 40 [0 0 0 0] ------- [0:0 1:0 32 0] [0 -1] 0 0
s 1.041667000 _0_ MAC  --- 0 ARP 62 [0 ffffffff 0 806] ------- [REQUEST 0/0 0/1]
r 1.041781333 _4_ MAC  --- 0 ARP 28 [0 ffffffff 0 806] ------- [REQUEST 0/0 0/1]
r 1.041781333 _1_ MAC  --- 0 ARP 28 [0 ffffffff 0 806] ------- [REQUEST 0/0 0/1]
r 1.041781334 _3_ MAC  --- 0 ARP 28 [0 ffffffff 0 806] ------- [REQUEST 0/0 0/1]
r 1.041781334 _2_ MAC  --- 0 ARP 28 [0 ffffffff 0 806] ------- [REQUEST 0/0 0/1]
s 1.041836333 _1_ MAC  --- 0 ARP 62 [3c 0 1 806] ------- [REPLY 1/1 0/0]
D 1.041874667 _0_ MAC  NOS 0 ARP 62 [3c 0 1 806] ------- [REPLY 1/1 0/0]
s 1.042828333 _1_ MAC  --- 0 ARP 62 [3c 0 1 806] ------- [REPLY 1/1 0/0]
D 1.042866667 _0_ MAC  NOS 0 ARP 62 [3c 0 1 806] ------- [REPLY 1/1 0/0]
s 1.043240333 _1_ MAC  --- 0 ARP 62 [3c 0 1 806] ------- [REPLY 1/1 0/0]
D 1.043278667 _0_ MAC  NOS 0 ARP 62 [3c 0 1 806] ------- [REPLY 1/1 0/0]
s 1.046272333 _1_ MAC  --- 0 ARP 62 [3c 0 1 806] ------- [REPLY 1/1 0/0]
D 1.046310667 _0_ MAC  NOS 0 ARP 62 [3c 0 1 806] ------- [REPLY 1/1 0/0]
s 1.050244333 _1_ MAC  --- 0 ARP 62 [3c 0 1 806] ------- [REPLY 1/1 0/0]
D 1.050282667 _0_ MAC  NOS 0 ARP 62 [3c 0 1 806] ------- [REPLY 1/1 0/0]
s 1.069536333 _1_ MAC  --- 0 ARP 62 [3c 0 1 806] ------- [REPLY 1/1 0/0]
D 1.069574667 _0_ MAC  NOS 0 ARP 62 [3c 0 1 806] ------- [REPLY 1/1 0/0]
s 1.070368333 _1_ MAC  --- 0 ARP 62 [3c 0 1 806] ------- [REPLY 1/1 0/0]
D 1.070406667 _0_ MAC  NOS 0 ARP 62 [3c 0 1 806] ------- [REPLY 1/1 0/0]
s 1.082680333 _1_ MAC  --- 0 ARP 62 [3c 0 1 806] ------- [REPLY 1/1 0/0]
D 1.082718667 _0_ MAC  NOS 0 ARP 62 [3c 0 1 806] ------- [REPLY 1/1 0/0]
D 1.082782333 _1_ MAC  RET 0 ARP 62 [3c 0 1 806] ------- [REPLY 1/1 0/0]
s 1.134635000 _0_ AGT  --- 1 tcp 40 [0 0 0 0] ------- [0:3 4:0 32 0] [0 -1] 0 0
s 1.134690000 _0_ MAC  --- 0 ARP 62 [0 ffffffff 0 806] ------- [REQUEST 0/0 0/4]
r 1.134804333 _4_ MAC  --- 0 ARP 28 [0 ffffffff 0 806] ------- [REQUEST 0/0 0/4]
r 1.134804333 _1_ MAC  --- 0 ARP 28 [0 ffffffff 0 806] ------- [REQUEST 0/0 0/4]
r 1.134804334 _3_ MAC  --- 0 ARP 28 [0 ffffffff 0 806] ------- [REQUEST 0/0 0/4]
r 1.134804334 _2_ MAC  --- 0 ARP 28 [0 ffffffff 0 806] ------- [REQUEST 0/0 0/4]
s 1.134859333 _4_ MAC  --- 0 ARP 62 [3c 0 4 806] ------- [REPLY 4/4 0/0]
D 1.134897667 _0_ MAC  NOS 0 ARP 62 [3c 0 4 806] ------- [REPLY 4/4 0/0]
s 1.136071333 _4_ MAC  --- 0 ARP 62 [3c 0 4 806] ------- [REPLY 4/4 0/0]
D 1.136109667 _0_ MAC  NOS 0 ARP 62 [3c 0 4 806] ------- [REPLY 4/4 0/0]
s 1.136863333 _4_ MAC  --- 0 ARP 62 [3c 0 4 806] ------- [REPLY 4/4 0/0]
D 1.136901667 _0_ MAC  NOS 0 ARP 62 [3c 0 4 806] ------- [REPLY 4/4 0/0]
s 1.140995333 _4_ MAC  --- 0 ARP 62 [3c 0 4 806] ------- [REPLY 4/4 0/0]
D 1.141033667 _0_ MAC  NOS 0 ARP 62 [3c 0 4 806] ------- [REPLY 4/4 0/0]
s 1.141847333 _4_ MAC  --- 0 ARP 62 [3c 0 4 806] ------- [REPLY 4/4 0/0]
D 1.141885667 _0_ MAC  NOS 0 ARP 62 [3c 0 4 806] ------- [REPLY 4/4 0/0]
s 1.153319333 _4_ MAC  --- 0 ARP 62 [3c 0 4 806] ------- [REPLY 4/4 0/0]
D 1.153357667 _0_ MAC  NOS 0 ARP 62 [3c 0 4 806] ------- [REPLY 4/4 0/0]
s 1.171531333 _4_ MAC  --- 0 ARP 62 [3c 0 4 806] ------- [REPLY 4/4 0/0]
D 1.171569667 _0_ MAC  NOS 0 ARP 62 [3c 0 4 806] ------- [REPLY 4/4 0/0]
s 1.183343333 _4_ MAC  --- 0 ARP 62 [3c 0 4 806] ------- [REPLY 4/4 0/0]
D 1.183381667 _0_ MAC  NOS 0 ARP 62 [3c 0 4 806] ------- [REPLY 4/4 0/0]
s 1.188614000 _0_ AGT  --- 2 tcp 40 [0 0 0 0] ------- [0:2 3:0 32 0] [0 -1] 0 0
s 1.188669000 _0_ MAC  --- 0 ARP 62 [0 ffffffff 0 806] ------- [REQUEST 0/0 0/3]
r 1.188783333 _4_ MAC  --- 0 ARP 28 [0 ffffffff 0 806] ------- [REQUEST 0/0 0/3]
r 1.188783333 _1_ MAC  --- 0 ARP 28 [0 ffffffff 0 806] ------- [REQUEST 0/0 0/3]
r 1.188783334 _3_ MAC  --- 0 ARP 28 [0 ffffffff 0 806] ------- [REQUEST 0/0 0/3]
r 1.188783334 _2_ MAC  --- 0 ARP 28 [0 ffffffff 0 806] ------- [REQUEST 0/0 0/3]
s 1.188838334 _3_ MAC  --- 0 ARP 62 [3c 0 3 806] ------- [REPLY 3/3 0/0]
D 1.188876669 _0_ MAC  NOS 0 ARP 62 [3c 0 3 806] ------- [REPLY 3/3 0/0]
s 1.189790334 _3_ MAC  --- 0 ARP 62 [3c 0 3 806] ------- [REPLY 3/3 0/0]
D 1.189828669 _0_ MAC  NOS 0 ARP 62 [3c 0 3 806] ------- [REPLY 3/3 0/0]
s 1.190782334 _3_ MAC  --- 0 ARP 62 [3c 0 3 806] ------- [REPLY 3/3 0/0]
D 1.190820669 _0_ MAC  NOS 0 ARP 62 [3c 0 3 806] ------- [REPLY 3/3 0/0]
s 1.193554334 _3_ MAC  --- 0 ARP 62 [3c 0 3 806] ------- [REPLY 3/3 0/0]
D 1.193592669 _0_ MAC  NOS 0 ARP 62 [3c 0 3 806] ------- [REPLY 3/3 0/0]
s 1.193862507 _4_ MAC  --- 0 ARP 62 [3c 0 4 806] ------- [REPLY 4/4 0/0]
D 1.193900840 _0_ MAC  NOS 0 ARP 62 [3c 0 4 806] ------- [REPLY 4/4 0/0]
s 1.200410679 _3_ MAC  --- 0 ARP 62 [3c 0 3 806] ------- [REPLY 3/3 0/0]
D 1.200449013 _0_ MAC  NOS 0 ARP 62 [3c 0 3 806] ------- [REPLY 3/3 0/0]
s 1.205954000 _0_ AGT  --- 3 tcp 40 [0 0 0 0] ------- [0:1 2:0 32 0] [0 -1] 0 0
s 1.206009000 _0_ MAC  --- 0 ARP 62 [0 ffffffff 0 806] ------- [REQUEST 0/0 0/2]
r 1.206123333 _4_ MAC  --- 0 ARP 28 [0 ffffffff 0 806] ------- [REQUEST 0/0 0/2]
r 1.206123333 _1_ MAC  --- 0 ARP 28 [0 ffffffff 0 806] ------- [REQUEST 0/0 0/2]
r 1.206123334 _3_ MAC  --- 0 ARP 28 [0 ffffffff 0 806] ------- [REQUEST 0/0 0/2]
r 1.206123334 _2_ MAC  --- 0 ARP 28 [0 ffffffff 0 806] ------- [REQUEST 0/0 0/2]
s 1.206178334 _2_ MAC  --- 0 ARP 62 [3c 0 2 806] ------- [REPLY 2/2 0/0]
D 1.206216669 _0_ MAC  NOS 0 ARP 62 [3c 0 2 806] ------- [REPLY 2/2 0/0]
s 1.206510334 _2_ MAC  --- 0 ARP 62 [3c 0 2 806] ------- [REPLY 2/2 0/0]
D 1.206548669 _0_ MAC  NOS 0 ARP 62 [3c 0 2 806] ------- [REPLY 2/2 0/0]
s 1.208642334 _2_ MAC  --- 0 ARP 62 [3c 0 2 806] ------- [REPLY 2/2 0/0]
D 1.208680669 _0_ MAC  NOS 0 ARP 62 [3c 0 2 806] ------- [REPLY 2/2 0/0]
s 1.209210669 _4_ MAC  --- 0 ARP 62 [3c 0 4 806] ------- [REPLY 4/4 0/0]
D 1.209249002 _0_ MAC  NOS 0 ARP 62 [3c 0 4 806] ------- [REPLY 4/4 0/0]
s 1.213799003 _2_ MAC  --- 0 ARP 62 [3c 0 2 806] ------- [REPLY 2/2 0/0]
D 1.213837338 _0_ MAC  NOS 0 ARP 62 [3c 0 2 806] ------- [REPLY 2/2 0/0]
s 1.218887178 _3_ MAC  --- 0 ARP 62 [3c 0 3 806] ------- [REPLY 3/3 0/0]
D 1.218925512 _0_ MAC  NOS 0 ARP 62 [3c 0 3 806] ------- [REPLY 3/3 0/0]
s 1.223475352 _2_ MAC  --- 0 ARP 62 [3c 0 2 806] ------- [REPLY 2/2 0/0]
D 1.223513687 _0_ MAC  NOS 0 ARP 62 [3c 0 2 806] ------- [REPLY 2/2 0/0]
s 1.227743687 _4_ MAC  --- 0 ARP 62 [3c 0 4 806] ------- [REPLY 4/4 0/0]
D 1.227782020 _0_ MAC  NOS 0 ARP 62 [3c 0 4 806] ------- [REPLY 4/4 0/0]
s 1.227891859 _3_ MAC  --- 0 ARP 62 [3c 0 3 806] ------- [REPLY 3/3 0/0]
D 1.227930193 _0_ MAC  NOS 0 ARP 62 [3c 0 3 806] ------- [REPLY 3/3 0/0]
s 1.232803859 _3_ MAC  --- 0 ARP 62 [3c 0 3 806] ------- [REPLY 3/3 0/0]
D 1.232842193 _0_ MAC  NOS 0 ARP 62 [3c 0 3 806] ------- [REPLY 3/3 0/0]
s 1.239452031 _4_ MAC  --- 0 ARP 62 [3c 0 4 806] ------- [REPLY 4/4 0/0]
D 1.239490365 _0_ MAC  NOS 0 ARP 62 [3c 0 4 806] ------- [REPLY 4/4 0/0]
s 1.240680203 _3_ MAC  --- 0 ARP 62 [3c 0 3 806] ------- [REPLY 3/3 0/0]
D 1.240718538 _0_ MAC  NOS 0 ARP 62 [3c 0 3 806] ------- [REPLY 3/3 0/0]
s 1.242728378 _2_ MAC  --- 0 ARP 62 [3c 0 2 806] ------- [REPLY 2/2 0/0]
D 1.242766712 _0_ MAC  NOS 0 ARP 62 [3c 0 2 806] ------- [REPLY 2/2 0/0]
s 1.243296552 _3_ MAC  --- 0 ARP 62 [3c 0 3 806] ------- [REPLY 3/3 0/0]
D 1.243334887 _0_ MAC  NOS 0 ARP 62 [3c 0 3 806] ------- [REPLY 3/3 0/0]
s 1.250808552 _3_ MAC  --- 0 ARP 62 [3c 0 3 806] ------- [REPLY 3/3 0/0]
D 1.250846887 _0_ MAC  NOS 0 ARP 62 [3c 0 3 806] ------- [REPLY 3/3 0/0]
s 1.258240552 _3_ MAC  --- 0 ARP 62 [3c 0 3 806] ------- [REPLY 3/3 0/0]
D 1.258278887 _0_ MAC  NOS 0 ARP 62 [3c 0 3 806] ------- [REPLY 3/3 0/0]
s 1.258948724 _4_ MAC  --- 0 ARP 62 [3c 0 4 806] ------- [REPLY 4/4 0/0]
D 1.258987058 _0_ MAC  NOS 0 ARP 62 [3c 0 4 806] ------- [REPLY 4/4 0/0]
s 1.260577059 _2_ MAC  --- 0 ARP 62 [3c 0 2 806] ------- [REPLY 2/2 0/0]
D 1.260615393 _0_ MAC  NOS 0 ARP 62 [3c 0 2 806] ------- [REPLY 2/2 0/0]
s 1.264709059 _2_ MAC  --- 0 ARP 62 [3c 0 2 806] ------- [REPLY 2/2 0/0]
D 1.264747393 _0_ MAC  NOS 0 ARP 62 [3c 0 2 806] ------- [REPLY 2/2 0/0]
s 1.267941059 _2_ MAC  --- 0 ARP 62 [3c 0 2 806] ------- [REPLY 2/2 0/0]
D 1.267979393 _0_ MAC  NOS 0 ARP 62 [3c 0 2 806] ------- [REPLY 2/2 0/0]
s 1.271589393 _4_ MAC  --- 0 ARP 62 [3c 0 4 806] ------- [REPLY 4/4 0/0]
D 1.271627727 _0_ MAC  NOS 0 ARP 62 [3c 0 4 806] ------- [REPLY 4/4 0/0]
s 1.274017728 _2_ MAC  --- 0 ARP 62 [3c 0 2 806] ------- [REPLY 2/2 0/0]
D 1.274056062 _0_ MAC  NOS 0 ARP 62 [3c 0 2 806] ------- [REPLY 2/2 0/0]
s 1.278245902 _3_ MAC  --- 0 ARP 62 [3c 0 3 806] ------- [REPLY 3/3 0/0]
D 1.278284237 _0_ MAC  NOS 0 ARP 62 [3c 0 3 806] ------- [REPLY 3/3 0/0]
s 1.281434077 _2_ MAC  --- 0 ARP 62 [3c 0 2 806] ------- [REPLY 2/2 0/0]
D 1.281472411 _0_ MAC  NOS 0 ARP 62 [3c 0 2 806] ------- [REPLY 2/2 0/0]
s 1.284442411 _4_ MAC  --- 0 ARP 62 [3c 0 4 806] ------- [REPLY 4/4 0/0]
D 1.284480745 _0_ MAC  NOS 0 ARP 62 [3c 0 4 806] ------- [REPLY 4/4 0/0]
s 1.288690583 _3_ MAC  --- 0 ARP 62 [3c 0 3 806] ------- [REPLY 3/3 0/0]
D 1.288728918 _0_ MAC  NOS 0 ARP 62 [3c 0 3 806] ------- [REPLY 3/3 0/0]
s 1.294278758 _2_ MAC  --- 0 ARP 62 [3c 0 2 806] ------- [REPLY 2/2 0/0]
D 1.294317092 _0_ MAC  NOS 0 ARP 62 [3c 0 2 806] ------- [REPLY 2/2 0/0]
s 1.294766932 _3_ MAC  --- 0 ARP 62 [3c 0 3 806] ------- [REPLY 3/3 0/0]
D 1.294805267 _0_ MAC  NOS 0 ARP 62 [3c 0 3 806] ------- [REPLY 3/3 0/0]
s 1.302375104 _4_ MAC  --- 0 ARP 62 [3c 0 4 806] ------- [REPLY 4/4 0/0]
D 1.302413438 _0_ MAC  NOS 0 ARP 62 [3c 0 4 806] ------- [REPLY 4/4 0/0]
s 1.308647104 _4_ MAC  --- 0 ARP 62 [3c 0 4 806] ------- [REPLY 4/4 0/0]
D 1.308685438 _0_ MAC  NOS 0 ARP 62 [3c 0 4 806] ------- [REPLY 4/4 0/0]
s 1.311335439 _2_ MAC  --- 0 ARP 62 [3c 0 2 806] ------- [REPLY 2/2 0/0]
D 1.311373773 _0_ MAC  NOS 0 ARP 62 [3c 0 2 806] ------- [REPLY 2/2 0/0]
s 1.311583613 _3_ MAC  --- 0 ARP 62 [3c 0 3 806] ------- [REPLY 3/3 0/0]
D 1.311621948 _0_ MAC  NOS 0 ARP 62 [3c 0 3 806] ------- [REPLY 3/3 0/0]
s 1.312575613 _3_ MAC  --- 0 ARP 62 [3c 0 3 806] ------- [REPLY 3/3 0/0]
D 1.312613948 _0_ MAC  NOS 0 ARP 62 [3c 0 3 806] ------- [REPLY 3/3 0/0]
s 1.326543788 _2_ MAC  --- 0 ARP 62 [3c 0 2 806] ------- [REPLY 2/2 0/0]
D 1.326582122 _0_ MAC  NOS 0 ARP 62 [3c 0 2 806] ------- [REPLY 2/2 0/0]
s 1.329092122 _4_ MAC  --- 0 ARP 62 [3c 0 4 806] ------- [REPLY 4/4 0/0]
D 1.329130456 _0_ MAC  NOS 0 ARP 62 [3c 0 4 806] ------- [REPLY 4/4 0/0]
s 1.329300457 _2_ MAC  --- 0 ARP 62 [3c 0 2 806] ------- [REPLY 2/2 0/0]
D 1.329338791 _0_ MAC  NOS 0 ARP 62 [3c 0 2 806] ------- [REPLY 2/2 0/0]
s 1.333388631 _3_ MAC  --- 0 ARP 62 [3c 0 3 806] ------- [REPLY 3/3 0/0]
D 1.333426966 _0_ MAC  NOS 0 ARP 62 [3c 0 3 806] ------- [REPLY 3/3 0/0]
s 1.335456803 _4_ MAC  --- 0 ARP 62 [3c 0 4 806] ------- [REPLY 4/4 0/0]
D 1.335495137 _0_ MAC  NOS 0 ARP 62 [3c 0 4 806] ------- [REPLY 4/4 0/0]
s 1.340085138 _2_ MAC  --- 0 ARP 62 [3c 0 2 806] ------- [REPLY 2/2 0/0]
D 1.340123472 _0_ MAC  NOS 0 ARP 62 [3c 0 2 806] ------- [REPLY 2/2 0/0]
s 1.340493472 _4_ MAC  --- 0 ARP 62 [3c 0 4 806] ------- [REPLY 4/4 0/0]
D 1.340531806 _0_ MAC  NOS 0 ARP 62 [3c 0 4 806] ------- [REPLY 4/4 0/0]
s 1.345605472 _4_ MAC  --- 0 ARP 62 [3c 0 4 806] ------- [REPLY 4/4 0/0]
D 1.345643806 _0_ MAC  NOS 0 ARP 62 [3c 0 4 806] ------- [REPLY 4/4 0/0]
s 1.346573645 _3_ MAC  --- 0 ARP 62 [3c 0 3 806] ------- [REPLY 3/3 0/0]
D 1.346611979 _0_ MAC  NOS 0 ARP 62 [3c 0 3 806] ------- [REPLY 3/3 0/0]
s 1.353425645 _3_ MAC  --- 0 ARP 62 [3c 0 3 806] ------- [REPLY 3/3 0/0]
D 1.353463979 _0_ MAC  NOS 0 ARP 62 [3c 0 3 806] ------- [REPLY 3/3 0/0]
s 1.356333817 _4_ MAC  --- 0 ARP 62 [3c 0 4 806] ------- [REPLY 4/4 0/0]
D 1.356372150 _0_ MAC  NOS 0 ARP 62 [3c 0 4 806] ------- [REPLY 4/4 0/0]
s 1.356542151 _2_ MAC  --- 0 ARP 62 [3c 0 2 806] ------- [REPLY 2/2 0/0]
D 1.356580486 _0_ MAC  NOS 0 ARP 62 [3c 0 2 806] ------- [REPLY 2/2 0/0]
s 1.359990326 _3_ MAC  --- 0 ARP 62 [3c 0 3 806] ------- [REPLY 3/3 0/0]
D 1.360028660 _0_ MAC  NOS 0 ARP 62 [3c 0 3 806] ------- [REPLY 3/3 0/0]
s 1.363338498 _4_ MAC  --- 0 ARP 62 [3c 0 4 806] ------- [REPLY 4/4 0/0]
D 1.363376831 _0_ MAC  NOS 0 ARP 62 [3c 0 4 806] ------- [REPLY 4/4 0/0]
s 1.365246670 _3_ MAC  --- 0 ARP 62 [3c 0 3 806] ------- [REPLY 3/3 0/0]
D 1.365285005 _0_ MAC  NOS 0 ARP 62 [3c 0 3 806] ------- [REPLY 3/3 0/0]
s 1.367994844 _2_ MAC  --- 0 ARP 62 [3c 0 2 806] ------- [REPLY 2/2 0/0]
D 1.368033179 _0_ MAC  NOS 0 ARP 62 [3c 0 2 806] ------- [REPLY 2/2 0/0]
s 1.372106844 _2_ MAC  --- 0 ARP 62 [3c 0 2 806] ------- [REPLY 2/2 0/0]
D 1.372145179 _0_ MAC  NOS 0 ARP 62 [3c 0 2 806] ------- [REPLY 2/2 0/0]
s 1.372275019 _3_ MAC  --- 0 ARP 62 [3c 0 3 806] ------- [REPLY 3/3 0/0]
D 1.372313353 _0_ MAC  NOS 0 ARP 62 [3c 0 3 806] ------- [REPLY 3/3 0/0]
s 1.373427019 _3_ MAC  --- 0 ARP 62 [3c 0 3 806] ------- [REPLY 3/3 0/0]
D 1.373465353 _0_ MAC  NOS 0 ARP 62 [3c 0 3 806] ------- [REPLY 3/3 0/0]
s 1.377215191 _4_ MAC  --- 0 ARP 62 [3c 0 4 806] ------- [REPLY 4/4 0/0]
D 1.377253524 _0_ MAC  NOS 0 ARP 62 [3c 0 4 806] ------- [REPLY 4/4 0/0]
s 1.378703526 _2_ MAC  --- 0 ARP 62 [3c 0 2 806] ------- [REPLY 2/2 0/0]
D 1.378741860 _0_ MAC  NOS 0 ARP 62 [3c 0 2 806] ------- [REPLY 2/2 0/0]
s 1.390811700 _3_ MAC  --- 0 ARP 62 [3c 0 3 806] ------- [REPLY 3/3 0/0]
D 1.390850034 _0_ MAC  NOS 0 ARP 62 [3c 0 3 806] ------- [REPLY 3/3 0/0]
s 1.394739872 _4_ MAC  --- 0 ARP 62 [3c 0 4 806] ------- [REPLY 4/4 0/0]
D 1.394778206 _0_ MAC  NOS 0 ARP 62 [3c 0 4 806] ------- [REPLY 4/4 0/0]
s 1.396768044 _3_ MAC  --- 0 ARP 62 [3c 0 3 806] ------- [REPLY 3/3 0/0]
D 1.396806379 _0_ MAC  NOS 0 ARP 62 [3c 0 3 806] ------- [REPLY 3/3 0/0]
s 1.397536219 _2_ MAC  --- 0 ARP 62 [3c 0 2 806] ------- [REPLY 2/2 0/0]
D 1.397574553 _0_ MAC  NOS 0 ARP 62 [3c 0 2 806] ------- [REPLY 2/2 0/0]
s 1.402064553 _4_ MAC  --- 0 ARP 62 [3c 0 4 806] ------- [REPLY 4/4 0/0]
D 1.402102887 _0_ MAC  NOS 0 ARP 62 [3c 0 4 806] ------- [REPLY 4/4 0/0]
s 1.411872888 _2_ MAC  --- 0 ARP 62 [3c 0 2 806] ------- [REPLY 2/2 0/0]
D 1.411911222 _0_ MAC  NOS 0 ARP 62 [3c 0 2 806] ------- [REPLY 2/2 0/0]
s 1.412401062 _3_ MAC  --- 0 ARP 62 [3c 0 3 806] ------- [REPLY 3/3 0/0]
D 1.412439397 _0_ MAC  NOS 0 ARP 62 [3c 0 3 806] ------- [REPLY 3/3 0/0]
s 1.420789234 _4_ MAC  --- 0 ARP 62 [3c 0 4 806] ------- [REPLY 4/4 0/0]
D 1.420827568 _0_ MAC  NOS 0 ARP 62 [3c 0 4 806] ------- [REPLY 4/4 0/0]
s 1.430857407 _3_ MAC  --- 0 ARP 62 [3c 0 3 806] ------- [REPLY 3/3 0/0]
D 1.430895741 _0_ MAC  NOS 0 ARP 62 [3c 0 3 806] ------- [REPLY 3/3 0/0]
s 1.430985581 _2_ MAC  --- 0 ARP 62 [3c 0 2 806] ------- [REPLY 2/2 0/0]
D 1.431023916 _0_ MAC  NOS 0 ARP 62 [3c 0 2 806] ------- [REPLY 2/2 0/0]
s 1.437493916 _4_ MAC  --- 0 ARP 62 [3c 0 4 806] ------- [REPLY 4/4 0/0]
D 1.437532249 _0_ MAC  NOS 0 ARP 62 [3c 0 4 806] ------- [REPLY 4/4 0/0]
s 1.448562088 _3_ MAC  --- 0 ARP 62 [3c 0 3 806] ------- [REPLY 3/3 0/0]
D 1.448600422 _0_ MAC  NOS 0 ARP 62 [3c 0 3 806] ------- [REPLY 3/3 0/0]
s 1.449814088 _3_ MAC  --- 0 ARP 62 [3c 0 3 806] ------- [REPLY 3/3 0/0]
D 1.449852422 _0_ MAC  NOS 0 ARP 62 [3c 0 3 806] ------- [REPLY 3/3 0/0]
s 1.450402262 _2_ MAC  --- 0 ARP 62 [3c 0 2 806] ------- [REPLY 2/2 0/0]
D 1.450440597 _0_ MAC  NOS 0 ARP 62 [3c 0 2 806] ------- [REPLY 2/2 0/0]
s 1.453930597 _4_ MAC  --- 0 ARP 62 [3c 0 4 806] ------- [REPLY 4/4 0/0]
D 1.453968930 _0_ MAC  NOS 0 ARP 62 [3c 0 4 806] ------- [REPLY 4/4 0/0]
s 1.458718769 _3_ MAC  --- 0 ARP 62 [3c 0 3 806] ------- [REPLY 3/3 0/0]
D 1.458757103 _0_ MAC  NOS 0 ARP 62 [3c 0 3 806] ------- [REPLY 3/3 0/0]
s 1.464206941 _4_ MAC  --- 0 ARP 62 [3c 0 4 806] ------- [REPLY 4/4 0/0]
D 1.464245274 _0_ MAC  NOS 0 ARP 62 [3c 0 4 806] ------- [REPLY 4/4 0/0]
s 1.464395113 _3_ MAC  --- 0 ARP 62 [3c 0 3 806] ------- [REPLY 3/3 0/0]
D 1.464433448 _0_ MAC  NOS 0 ARP 62 [3c 0 3 806] ------- [REPLY 3/3 0/0]
s 1.466103288 _2_ MAC  --- 0 ARP 62 [3c 0 2 806] ------- [REPLY 2/2 0/0]
D 1.466141622 _0_ MAC  NOS 0 ARP 62 [3c 0 2 806] ------- [REPLY 2/2 0/0]
s 1.470051462 _3_ MAC  --- 0 ARP 62 [3c 0 3 806] ------- [REPLY 3/3 0/0]
D 1.470089797 _0_ MAC  NOS 0 ARP 62 [3c 0 3 806] ------- [REPLY 3/3 0/0]
s 1.472899634 _4_ MAC  --- 0 ARP 62 [3c 0 4 806] ------- [REPLY 4/4 0/0]
D 1.472937968 _0_ MAC  NOS 0 ARP 62 [3c 0 4 806] ------- [REPLY 4/4 0/0]
s 1.479531634 _4_ MAC  --- 0 ARP 62 [3c 0 4 806] ------- [REPLY 4/4 0/0]
D 1.479569968 _0_ MAC  NOS 0 ARP 62 [3c 0 4 806] ------- [REPLY 4/4 0/0]
s 1.483899969 _2_ MAC  --- 0 ARP 62 [3c 0 2 806] ------- [REPLY 2/2 0/0]
D 1.483938303 _0_ MAC  NOS 0 ARP 62 [3c 0 2 806] ------- [REPLY 2/2 0/0]
s 1.487448143 _3_ MAC  --- 0 ARP 62 [3c 0 3 806] ------- [REPLY 3/3 0/0]
D 1.487486478 _0_ MAC  NOS 0 ARP 62 [3c 0 3 806] ------- [REPLY 3/3 0/0]
s 1.494836318 _2_ MAC  --- 0 ARP 62 [3c 0 2 806] ------- [REPLY 2/2 0/0]
D 1.494874652 _0_ MAC  NOS 0 ARP 62 [3c 0 2 806] ------- [REPLY 2/2 0/0]
s 1.495264652 _4_ MAC  --- 0 ARP 62 [3c 0 4 806] ------- [REPLY 4/4 0/0]
D 1.495302985 _0_ MAC  NOS 0 ARP 62 [3c 0 4 806] ------- [REPLY 4/4 0/0]
s 1.499772824 _3_ MAC  --- 0 ARP 62 [3c 0 3 806] ------- [REPLY 3/3 0/0]
D 1.499811159 _0_ MAC  NOS 0 ARP 62 [3c 0 3 806] ------- [REPLY 3/3 0/0]
s 1.500000999 _2_ MAC  --- 0 ARP 62 [3c 0 2 806] ------- [REPLY 2/2 0/0]
D 1.500039333 _0_ MAC  NOS 0 ARP 62 [3c 0 2 806] ------- [REPLY 2/2 0/0]
s 1.508409333 _4_ MAC  --- 0 ARP 62 [3c 0 4 806] ------- [REPLY 4/4 0/0]
D 1.508447667 _0_ MAC  NOS 0 ARP 62 [3c 0 4 806] ------- [REPLY 4/4 0/0]
s 1.514137668 _2_ MAC  --- 0 ARP 62 [3c 0 2 806] ------- [REPLY 2/2 0/0]
D 1.514176002 _0_ MAC  NOS 0 ARP 62 [3c 0 2 806] ------- [REPLY 2/2 0/0]
s 1.515326002 _4_ MAC  --- 0 ARP 62 [3c 0 4 806] ------- [REPLY 4/4 0/0]
D 1.515364336 _0_ MAC  NOS 0 ARP 62 [3c 0 4 806] ------- [REPLY 4/4 0/0]
s 1.517774174 _3_ MAC  --- 0 ARP 62 [3c 0 3 806] ------- [REPLY 3/3 0/0]
D 1.517812509 _0_ MAC  NOS 0 ARP 62 [3c 0 3 806] ------- [REPLY 3/3 0/0]
s 1.518102349 _2_ MAC  --- 0 ARP 62 [3c 0 2 806] ------- [REPLY 2/2 0/0]
D 1.518140683 _0_ MAC  NOS 0 ARP 62 [3c 0 2 806] ------- [REPLY 2/2 0/0]
s 1.526134349 _2_ MAC  --- 0 ARP 62 [3c 0 2 806] ------- [REPLY 2/2 0/0]
D 1.526172683 _0_ MAC  NOS 0 ARP 62 [3c 0 2 806] ------- [REPLY 2/2 0/0]
s 1.535306349 _2_ MAC  --- 0 ARP 62 [3c 0 2 806] ------- [REPLY 2/2 0/0]
D 1.535344683 _0_ MAC  NOS 0 ARP 62 [3c 0 2 806] ------- [REPLY 2/2 0/0]
s 1.535994683 _4_ MAC  --- 0 ARP 62 [3c 0 4 806] ------- [REPLY 4/4 0/0]
D 1.536033017 _0_ MAC  NOS 0 ARP 62 [3c 0 4 806] ------- [REPLY 4/4 0/0]
s 1.537962856 _3_ MAC  --- 0 ARP 62 [3c 0 3 806] ------- [REPLY 3/3 0/0]
D 1.538001190 _0_ MAC  NOS 0 ARP 62 [3c 0 3 806] ------- [REPLY 3/3 0/0]
s 1.540771028 _4_ MAC  --- 0 ARP 62 [3c 0 4 806] ------- [REPLY 4/4 0/0]
D 1.540809361 _0_ MAC  NOS 0 ARP 62 [3c 0 4 806] ------- [REPLY 4/4 0/0]
s 1.541539200 _3_ MAC  --- 0 ARP 62 [3c 0 3 806] ------- [REPLY 3/3 0/0]
D 1.541577534 _0_ MAC  NOS 0 ARP 62 [3c 0 3 806] ------- [REPLY 3/3 0/0]
s 1.545107374 _2_ MAC  --- 0 ARP 62 [3c 0 2 806] ------- [REPLY 2/2 0/0]
D 1.545145709 _0_ MAC  NOS 0 ARP 62 [3c 0 2 806] ------- [REPLY 2/2 0/0]
s 1.546659374 _2_ MAC  --- 0 ARP 62 [3c 0 2 806] ------- [REPLY 2/2 0/0]
D 1.546697709 _0_ MAC  NOS 0 ARP 62 [3c 0 2 806] ------- [REPLY 2/2 0/0]
s 1.548827549 _3_ MAC  --- 0 ARP 62 [3c 0 3 806] ------- [REPLY 3/3 0/0]
D 1.548865883 _0_ MAC  NOS 0 ARP 62 [3c 0 3 806] ------- [REPLY 3/3 0/0]
s 1.552975721 _4_ MAC  --- 0 ARP 62 [3c 0 4 806] ------- [REPLY 4/4 0/0]
D 1.553014054 _0_ MAC  NOS 0 ARP 62 [3c 0 4 806] ------- [REPLY 4/4 0/0]
s 1.554183893 _3_ MAC  --- 0 ARP 62 [3c 0 3 806] ------- [REPLY 3/3 0/0]
D 1.554222228 _0_ MAC  NOS 0 ARP 62 [3c 0 3 806] ------- [REPLY 3/3 0/0]
s 1.556232068 _2_ MAC  --- 0 ARP 62 [3c 0 2 806] ------- [REPLY 2/2 0/0]
D 1.556270402 _0_ MAC  NOS 0 ARP 62 [3c 0 2 806] ------- [REPLY 2/2 0/0]
s 1.564240242 _3_ MAC  --- 0 ARP 62 [3c 0 3 806] ------- [REPLY 3/3 0/0]
D 1.564278577 _0_ MAC  NOS 0 ARP 62 [3c 0 3 806] ------- [REPLY 3/3 0/0]
s 1.564588414 _4_ MAC  --- 0 ARP 62 [3c 0 4 806] ------- [REPLY 4/4 0/0]
D 1.564626748 _0_ MAC  NOS 0 ARP 62 [3c 0 4 806] ------- [REPLY 4/4 0/0]
s 1.569380414 _4_ MAC  --- 0 ARP 62 [3c 0 4 806] ------- [REPLY 4/4 0/0]
D 1.569418748 _0_ MAC  NOS 0 ARP 62 [3c 0 4 806] ------- [REPLY 4/4 0/0]
s 1.572928749 _2_ MAC  --- 0 ARP 62 [3c 0 2 806] ------- [REPLY 2/2 0/0]
D 1.572967083 _0_ MAC  NOS 0 ARP 62 [3c 0 2 806] ------- [REPLY 2/2 0/0]
s 1.578397083 _4_ MAC  --- 0 ARP 62 [3c 0 4 806] ------- [REPLY 4/4 0/0]
D 1.578435417 _0_ MAC  NOS 0 ARP 62 [3c 0 4 806] ------- [REPLY 4/4 0/0]
s 1.580125418 _2_ MAC  --- 0 ARP 62 [3c 0 2 806] ------- [REPLY 2/2 0/0]
D 1.580163752 _0_ MAC  NOS 0 ARP 62 [3c 0 2 806] ------- [REPLY 2/2 0/0]
s 1.583513592 _3_ MAC  --- 0 ARP 62 [3c 0 3 806] ------- [REPLY 3/3 0/0]
D 1.583551927 _0_ MAC  NOS 0 ARP 62 [3c 0 3 806] ------- [REPLY 3/3 0/0]
s 1.589565592 _3_ MAC  --- 0 ARP 62 [3c 0 3 806] ------- [REPLY 3/3 0/0]
D 1.589603927 _0_ MAC  NOS 0 ARP 62 [3c 0 3 806] ------- [REPLY 3/3 0/0]
s 1.594173764 _4_ MAC  --- 0 ARP 62 [3c 0 4 806] ------- [REPLY 4/4 0/0]
D 1.594212098 _0_ MAC  NOS 0 ARP 62 [3c 0 4 806] ------- [REPLY 4/4 0/0]
s 1.601002099 _2_ MAC  --- 0 ARP 62 [3c 0 2 806] ------- [REPLY 2/2 0/0]
D 1.601040433 _0_ MAC  NOS 0 ARP 62 [3c 0 2 806] ------- [REPLY 2/2 0/0]
s 1.605410273 _3_ MAC  --- 0 ARP 62 [3c 0 3 806] ------- [REPLY 3/3 0/0]
D 1.605448608 _0_ MAC  NOS 0 ARP 62 [3c 0 3 806] ------- [REPLY 3/3 0/0]
s 1.610098445 _4_ MAC  --- 0 ARP 62 [3c 0 4 806] ------- [REPLY 4/4 0/0]
D 1.610136779 _0_ MAC  NOS 0 ARP 62 [3c 0 4 806] ------- [REPLY 4/4 0/0]
s 1.612946780 _2_ MAC  --- 0 ARP 62 [3c 0 2 806] ------- [REPLY 2/2 0/0]
D 1.612985114 _0_ MAC  NOS 0 ARP 62 [3c 0 2 806] ------- [REPLY 2/2 0/0]
s 1.617134954 _3_ MAC  --- 0 ARP 62 [3c 0 3 806] ------- [REPLY 3/3 0/0]
D 1.617173289 _0_ MAC  NOS 0 ARP 62 [3c 0 3 806] ------- [REPLY 3/3 0/0]
s 1.625523129 _2_ MAC  --- 0 ARP 62 [3c 0 2 806] ------- [REPLY 2/2 0/0]
D 1.625561463 _0_ MAC  NOS 0 ARP 62 [3c 0 2 806] ------- [REPLY 2/2 0/0]
s 1.627555129 _2_ MAC  --- 0 ARP 62 [3c 0 2 806] ------- [REPLY 2/2 0/0]
D 1.627593463 _0_ MAC  NOS 0 ARP 62 [3c 0 2 806] ------- [REPLY 2/2 0/0]
s 1.628223463 _4_ MAC  --- 0 ARP 62 [3c 0 4 806] ------- [REPLY 4/4 0/0]
D 1.628261797 _0_ MAC  NOS 0 ARP 62 [3c 0 4 806] ------- [REPLY 4/4 0/0]
s 1.632271635 _3_ MAC  --- 0 ARP 62 [3c 0 3 806] ------- [REPLY 3/3 0/0]
D 1.632309970 _0_ MAC  NOS 0 ARP 62 [3c 0 3 806] ------- [REPLY 3/3 0/0]
s 1.635499808 _4_ MAC  --- 0 ARP 62 [3c 0 4 806] ------- [REPLY 4/4 0/0]
D 1.635538141 _0_ MAC  NOS 0 ARP 62 [3c 0 4 806] ------- [REPLY 4/4 0/0]
s 1.638647980 _3_ MAC  --- 0 ARP 62 [3c 0 3 806] ------- [REPLY 3/3 0/0]
D 1.638686314 _0_ MAC  NOS 0 ARP 62 [3c 0 3 806] ------- [REPLY 3/3 0/0]
s 1.641056152 _4_ MAC  --- 0 ARP 62 [3c 0 4 806] ------- [REPLY 4/4 0/0]
D 1.641094485 _0_ MAC  NOS 0 ARP 62 [3c 0 4 806] ------- [REPLY 4/4 0/0]
s 1.642544487 _2_ MAC  --- 0 ARP 62 [3c 0 2 806] ------- [REPLY 2/2 0/0]
D 1.642582821 _0_ MAC  NOS 0 ARP 62 [3c 0 2 806] ------- [REPLY 2/2 0/0]
s 1.653616487 _2_ MAC  --- 0 ARP 62 [3c 0 2 806] ------- [REPLY 2/2 0/0]
D 1.653654821 _0_ MAC  NOS 0 ARP 62 [3c 0 2 806] ------- [REPLY 2/2 0/0]
s 1.653864821 _4_ MAC  --- 0 ARP 62 [3c 0 4 806] ------- [REPLY 4/4 0/0]
D 1.653903154 _0_ MAC  NOS 0 ARP 62 [3c 0 4 806] ------- [REPLY 4/4 0/0]
s 1.659612993 _3_ MAC  --- 0 ARP 62 [3c 0 3 806] ------- [REPLY 3/3 0/0]
D 1.659651328 _0_ MAC  NOS 0 ARP 62 [3c 0 3 806] ------- [REPLY 3/3 0/0]
s 1.664704993 _3_ MAC  --- 0 ARP 62 [3c 0 3 806] ------- [REPLY 3/3 0/0]
D 1.664743328 _0_ MAC  NOS 0 ARP 62 [3c 0 3 806] ------- [REPLY 3/3 0/0]
s 1.667336993 _3_ MAC  --- 0 ARP 62 [3c 0 3 806] ------- [REPLY 3/3 0/0]
D 1.667375328 _0_ MAC  NOS 0 ARP 62 [3c 0 3 806] ------- [REPLY 3/3 0/0]
s 1.670645168 _2_ MAC  --- 0 ARP 62 [3c 0 2 806] ------- [REPLY 2/2 0/0]
D 1.670683502 _0_ MAC  NOS 0 ARP 62 [3c 0 2 806] ------- [REPLY 2/2 0/0]
s 1.671653502 _4_ MAC  --- 0 ARP 62 [3c 0 4 806] ------- [REPLY 4/4 0/0]
D 1.671691835 _0_ MAC  NOS 0 ARP 62 [3c 0 4 806] ------- [REPLY 4/4 0/0]
s 1.676801837 _2_ MAC  --- 0 ARP 62 [3c 0 2 806] ------- [REPLY 2/2 0/0]
D 1.676840171 _0_ MAC  NOS 0 ARP 62 [3c 0 2 806] ------- [REPLY 2/2 0/0]
s 1.677750011 _3_ MAC  --- 0 ARP 62 [3c 0 3 806] ------- [REPLY 3/3 0/0]
D 1.677788346 _0_ MAC  NOS 0 ARP 62 [3c 0 3 806] ------- [REPLY 3/3 0/0]
s 1.679478185 _2_ MAC  --- 0 ARP 62 [3c 0 2 806] ------- [REPLY 2/2 0/0]
D 1.679516520 _0_ MAC  NOS 0 ARP 62 [3c 0 2 806] ------- [REPLY 2/2 0/0]
s 1.688746520 _4_ MAC  --- 0 ARP 62 [3c 0 4 806] ------- [REPLY 4/4 0/0]
D 1.688784853 _0_ MAC  NOS 0 ARP 62 [3c 0 4 806] ------- [REPLY 4/4 0/0]
s 1.692774854 _2_ MAC  --- 0 ARP 62 [3c 0 2 806] ------- [REPLY 2/2 0/0]
D 1.692813189 _0_ MAC  NOS 0 ARP 62 [3c 0 2 806] ------- [REPLY 2/2 0/0]
s 1.697723029 _3_ MAC  --- 0 ARP 62 [3c 0 3 806] ------- [REPLY 3/3 0/0]
D 1.697761363 _0_ MAC  NOS 0 ARP 62 [3c 0 3 806] ------- [REPLY 3/3 0/0]
s 1.700371201 _4_ MAC  --- 0 ARP 62 [3c 0 4 806] ------- [REPLY 4/4 0/0]
D 1.700409534 _0_ MAC  NOS 0 ARP 62 [3c 0 4 806] ------- [REPLY 4/4 0/0]
s 1.701739536 _2_ MAC  --- 0 ARP 62 [3c 0 2 806] ------- [REPLY 2/2 0/0]
D 1.701777870 _0_ MAC  NOS 0 ARP 62 [3c 0 2 806] ------- [REPLY 2/2 0/0]
s 1.714867870 _4_ MAC  --- 0 ARP 62 [3c 0 4 806] ------- [REPLY 4/4 0/0]
D 1.714906203 _0_ MAC  NOS 0 ARP 62 [3c 0 4 806] ------- [REPLY 4/4 0/0]
s 1.716036042 _3_ MAC  --- 0 ARP 62 [3c 0 3 806] ------- [REPLY 3/3 0/0]
D 1.716074377 _0_ MAC  NOS 0 ARP 62 [3c 0 3 806] ------- [REPLY 3/3 0/0]
s 1.716544217 _2_ MAC  --- 0 ARP 62 [3c 0 2 806] ------- [REPLY 2/2 0/0]
D 1.716582551 _0_ MAC  NOS 0 ARP 62 [3c 0 2 806] ------- [REPLY 2/2 0/0]
s 1.721316217 _2_ MAC  --- 0 ARP 62 [3c 0 2 806] ------- [REPLY 2/2 0/0]
D 1.721354551 _0_ MAC  NOS 0 ARP 62 [3c 0 2 806] ------- [REPLY 2/2 0/0]
s 1.727624551 _4_ MAC  --- 0 ARP 62 [3c 0 4 806] ------- [REPLY 4/4 0/0]
D 1.727662884 _0_ MAC  NOS 0 ARP 62 [3c 0 4 806] ------- [REPLY 4/4 0/0]
s 1.731232886 _2_ MAC  --- 0 ARP 62 [3c 0 2 806] ------- [REPLY 2/2 0/0]
D 1.731271220 _0_ MAC  NOS 0 ARP 62 [3c 0 2 806] ------- [REPLY 2/2 0/0]
s 1.731441060 _3_ MAC  --- 0 ARP 62 [3c 0 3 806] ------- [REPLY 3/3 0/0]
D 1.731479394 _0_ MAC  NOS 0 ARP 62 [3c 0 3 806] ------- [REPLY 3/3 0/0]
s 1.732893060 _3_ MAC  --- 0 ARP 62 [3c 0 3 806] ------- [REPLY 3/3 0/0]
D 1.732931394 _0_ MAC  NOS 0 ARP 62 [3c 0 3 806] ------- [REPLY 3/3 0/0]
s 1.735861232 _4_ MAC  --- 0 ARP 62 [3c 0 4 806] ------- [REPLY 4/4 0/0]
D 1.735899566 _0_ MAC  NOS 0 ARP 62 [3c 0 4 806] ------- [REPLY 4/4 0/0]
s 1.740653232 _4_ MAC  --- 0 ARP 62 [3c 0 4 806] ------- [REPLY 4/4 0/0]
D 1.740691566 _0_ MAC  NOS 0 ARP 62 [3c 0 4 806] ------- [REPLY 4/4 0/0]
s 1.745201404 _3_ MAC  --- 0 ARP 62 [3c 0 3 806] ------- [REPLY 3/3 0/0]
D 1.745239739 _0_ MAC  NOS 0 ARP 62 [3c 0 3 806] ------- [REPLY 3/3 0/0]
s 1.750669579 _2_ MAC  --- 0 ARP 62 [3c 0 2 806] ------- [REPLY 2/2 0/0]
D 1.750707913 _0_ MAC  NOS 0 ARP 62 [3c 0 2 806] ------- [REPLY 2/2 0/0]
s 1.758437753 _3_ MAC  --- 0 ARP 62 [3c 0 3 806] ------- [REPLY 3/3 0/0]
D 1.758476088 _0_ MAC  NOS 0 ARP 62 [3c 0 3 806] ------- [REPLY 3/3 0/0]
s 1.759665925 _4_ MAC  --- 0 ARP 62 [3c 0 4 806] ------- [REPLY 4/4 0/0]
D 1.759704259 _0_ MAC  NOS 0 ARP 62 [3c 0 4 806] ------- [REPLY 4/4 0/0]
s 1.760514260 _2_ MAC  --- 0 ARP 62 [3c 0 2 806] ------- [REPLY 2/2 0/0]
D 1.760552594 _0_ MAC  NOS 0 ARP 62 [3c 0 2 806] ------- [REPLY 2/2 0/0]
s 1.764106260 _2_ MAC  --- 0 ARP 62 [3c 0 2 806] ------- [REPLY 2/2 0/0]
D 1.764144594 _0_ MAC  NOS 0 ARP 62 [3c 0 2 806] ------- [REPLY 2/2 0/0]
s 1.768598260 _2_ MAC  --- 0 ARP 62 [3c 0 2 806] ------- [REPLY 2/2 0/0]
D 1.768636594 _0_ MAC  NOS 0 ARP 62 [3c 0 2 806] ------- [REPLY 2/2 0/0]
s 1.772826434 _3_ MAC  --- 0 ARP 62 [3c 0 3 806] ------- [REPLY 3/3 0/0]
D 1.772864769 _0_ MAC  NOS 0 ARP 62 [3c 0 3 806] ------- [REPLY 3/3 0/0]
s 1.774354607 _4_ MAC  --- 0 ARP 62 [3c 0 4 806] ------- [REPLY 4/4 0/0]
D 1.774392940 _0_ MAC  NOS 0 ARP 62 [3c 0 4 806] ------- [REPLY 4/4 0/0]
s 1.775462941 _2_ MAC  --- 0 ARP 62 [3c 0 2 806] ------- [REPLY 2/2 0/0]
D 1.775501276 _0_ MAC  NOS 0 ARP 62 [3c 0 2 806] ------- [REPLY 2/2 0/0]
s 1.780411276 _4_ MAC  --- 0 ARP 62 [3c 0 4 806] ------- [REPLY 4/4 0/0]
D 1.780449609 _0_ MAC  NOS 0 ARP 62 [3c 0 4 806] ------- [REPLY 4/4 0/0]
s 1.789059610 _2_ MAC  --- 0 ARP 62 [3c 0 2 806] ------- [REPLY 2/2 0/0]
D 1.789097944 _0_ MAC  NOS 0 ARP 62 [3c 0 2 806] ------- [REPLY 2/2 0/0]
s 1.790687784 _3_ MAC  --- 0 ARP 62 [3c 0 3 806] ------- [REPLY 3/3 0/0]
D 1.790726119 _0_ MAC  NOS 0 ARP 62 [3c 0 3 806] ------- [REPLY 3/3 0/0]
s 1.792155957 _4_ MAC  --- 0 ARP 62 [3c 0 4 806] ------- [REPLY 4/4 0/0]
D 1.792194290 _0_ MAC  NOS 0 ARP 62 [3c 0 4 806] ------- [REPLY 4/4 0/0]
s 1.795104291 _2_ MAC  --- 0 ARP 62 [3c 0 2 806] ------- [REPLY 2/2 0/0]
D 1.795142626 _0_ MAC  NOS 0 ARP 62 [3c 0 2 806] ------- [REPLY 2/2 0/0]
s 1.803376291 _2_ MAC  --- 0 ARP 62 [3c 0 2 806] ------- [REPLY 2/2 0/0]
D 1.803414626 _0_ MAC  NOS 0 ARP 62 [3c 0 2 806] ------- [REPLY 2/2 0/0]
s 1.810744466 _3_ MAC  --- 0 ARP 62 [3c 0 3 806] ------- [REPLY 3/3 0/0]
D 1.810782800 _0_ MAC  NOS 0 ARP 62 [3c 0 3 806] ------- [REPLY 3/3 0/0]
s 1.812992638 _4_ MAC  --- 0 ARP 62 [3c 0 4 806] ------- [REPLY 4/4 0/0]
D 1.813030971 _0_ MAC  NOS 0 ARP 62 [3c 0 4 806] ------- [REPLY 4/4 0/0]
s 1.822620972 _2_ MAC  --- 0 ARP 62 [3c 0 2 806] ------- [REPLY 2/2 0/0]
D 1.822659307 _0_ MAC  NOS 0 ARP 62 [3c 0 2 806] ------- [REPLY 2/2 0/0]
s 1.822729307 _4_ MAC  --- 0 ARP 62 [3c 0 4 806] ------- [REPLY 4/4 0/0]
D 1.822767640 _0_ MAC  NOS 0 ARP 62 [3c 0 4 806] ------- [REPLY 4/4 0/0]
s 1.824637641 _2_ MAC  --- 0 ARP 62 [3c 0 2 806] ------- [REPLY 2/2 0/0]
D 1.824675976 _0_ MAC  NOS 0 ARP 62 [3c 0 2 806] ------- [REPLY 2/2 0/0]
s 1.828765816 _3_ MAC  --- 0 ARP 62 [3c 0 3 806] ------- [REPLY 3/3 0/0]
D 1.828804150 _0_ MAC  NOS 0 ARP 62 [3c 0 3 806] ------- [REPLY 3/3 0/0]
s 1.829877816 _3_ MAC  --- 0 ARP 62 [3c 0 3 806] ------- [REPLY 3/3 0/0]
D 1.829916150 _0_ MAC  NOS 0 ARP 62 [3c 0 3 806] ------- [REPLY 3/3 0/0]
s 1.830525990 _2_ MAC  --- 0 ARP 62 [3c 0 2 806] ------- [REPLY 2/2 0/0]