+ 0.1 0 2 tcp 1000 ------- 0 0.0 3.0 0 0
- 0.1 0 2 tcp 1000 ------- 0 0.0 3.0 0 0
r 0.103 0 2 tcp 1000 ------- 0 0.0 3.0 0 0
+ 0.103 2 3 tcp 1000 ------- 0 0.0 3.0 0 0
- 0.103 2 3 tcp 1000 ------- 0 0.0 3.0 0 0
r 0.115 2 3 tcp 1000 ------- 0 0.0 3.0 0 0
+ 0.115 3 2 ack 40 ------- 0 3.0 0.0 0 1
- 0.115 3 2 ack 40 ------- 0 3.0 0.0 0 1
r 0.1174 3 2 ack 40 ------- 0 3.0 0.0 0 1
+ 0.1174 2 0 ack 40 ------- 0 3.0 0.0 0 1
- 0.1174 2 0 ack 40 ------- 0 3.0 0.0 0 1
r 0.11944 2 0 ack 40 ------- 0 3.0 0.0 0 1
+ 0.11944 0 2 tcp 1000 ------- 0 0.0 3.0 1 2
- 0.11944 0 2 tcp 1000 ------- 0 0.0 3.0 1 2
+ 0.11944 0 2 tcp 1000 ------- 0 0.0 3.0 2 3
- 0.12044 0 2 tcp 1000 ------- 0 0.0 3.0 2 3
r 0.12244 0 2 tcp 1000 ------- 0 0.0 3.0 1 2
+ 0.12244 2 3 tcp 1000 ------- 0 0.0 3.0 1 2
- 0.12244 2 3 tcp 1000 ------- 0 0.0 3.0 1 2
r 0.12344 0 2 tcp 1000 ------- 0 0.0 3.0 2 3
+ 0.12344 2 3 tcp 1000 ------- 0 0.0 3.0 2 3
- 0.13244 2 3 tcp 1000 ------- 0 0.0 3.0 2 3
r 0.13444 2 3 tcp 1000 ------- 0 0.0 3.0 1 2
+ 0.13444 3 2 ack 40 ------- 0 3.0 0.0 1 4
- 0.13444 3 2 ack 40 ------- 0 3.0 0.0 1 4
r 0.13684 3 2 ack 40 ------- 0 3.0 0.0 1 4
+ 0.13684 2 0 ack 40 ------- 0 3.0 0.0 1 4
- 0.13684 2 0 ack 40 ------- 0 3.0 0.0 1 4
r 0.13888 2 0 ack 40 ------- 0 3.0 0.0 1 4
+ 0.13888 0 2 tcp 1000 ------- 0 0.0 3.0 3 5
- 0.13888 0 2 tcp 1000 ------- 0 0.0 3.0 3 5
+ 0.13888 0 2 tcp 1000 ------- 0 0.0 3.0 4 6
- 0.13988 0 2 tcp 1000 ------- 0 0.0 3.0 4 6
r 0.14188 0 2 tcp 1000 ------- 0 0.0 3.0 3 5
+ 0.14188 2 3 tcp 1000 ------- 0 0.0 3.0 3 5
- 0.14244 2 3 tcp 1000 ------- 0 0.0 3.0 3 5
r 0.14288 0 2 tcp 1000 ------- 0 0.0 3.0 4 6
+ 0.14288 2 3 tcp 1000 ------- 0 0.0 3.0 4 6
r 0.14444 2 3 tcp 1000 ------- 0 0.0 3.0 2 3
+ 0.14444 3 2 ack 40 ------- 0 3.0 0.0 2 7
- 0.14444 3 2 ack 40 ------- 0 3.0 0.0 2 7
r 0.14684 3 2 ack 40 ------- 0 3.0 0.0 2 7
+ 0.14684 2 0 ack 40 ------- 0 3.0 0.0 2 7
- 0.14684 2 0 ack 40 ------- 0 3.0 0.0 2 7
r 0.14888 2 0 ack 40 ------- 0 3.0 0.0 2 7
+ 0.14888 0 2 tcp 1000 ------- 0 0.0 3.0 5 8
- 0.14888 0 2 tcp 1000 ------- 0 0.0 3.0 5 8
+ 0.14888 0 2 tcp 1000 ------- 0 0.0 3.0 6 9
- 0.14988 0 2 tcp 1000 ------- 0 0.0 3.0 6 9
r 0.15188 0 2 tcp 1000 ------- 0 0.0 3.0 5 8
+ 0.15188 2 3 tcp 1000 ------- 0 0.0 3.0 5 8
- 0.15244 2 3 tcp 1000 ------- 0 0.0 3.0 4 6
r 0.15288 0 2 tcp 1000 ------- 0 0.0 3.0 6 9
+ 0.15288 2 3 tcp 1000 ------- 0 0.0 3.0 6 9
r 0.15444 2 3 tcp 1000 ------- 0 0.0 3.0 3 5
+ 0.15444 3 2 ack 40 ------- 0 3.0 0.0 3 10
- 0.15444 3 2 ack 40 ------- 0 3.0 0.0 3 10
r 0.15684 3 2 ack 40 ------- 0 3.0 0.0 3 10
+ 0.15684 2 0 ack 40 ------- 0 3.0 0.0 3 10
- 0.15684 2 0 ack 40 ------- 0 3.0 0.0 3 10
r 0.15888 2 0 ack 40 ------- 0 3.0 0.0 3 10
+ 0.15888 0 2 tcp 1000 ------- 0 0.0 3.0 7 11
- 0.15888 0 2 tcp 1000 ------- 0 0.0 3.0 7 11
+ 0.15888 0 2 tcp 1000 ------- 0 0.0 3.0 8 12
- 0.15988 0 2 tcp 1000 ------- 0 0.0 3.0 8 12
r 0.16188 0 2 tcp 1000 ------- 0 0.0 3.0 7 11
+ 0.16188 2 3 tcp 1000 ------- 0 0.0 3.0 7 11
- 0.16244 2 3 tcp 1000 ------- 0 0.0 3.0 5 8
r 0.16288 0 2 tcp 1000 ------- 0 0.0 3.0 8 12
+ 0.16288 2 3 tcp 1000 ------- 0 0.0 3.0 8 12
r 0.16444 2 3 tcp 1000 ------- 0 0.0 3.0 4 6
+ 0.16444 3 2 ack 40 ------- 0 3.0 0.0 4 13
- 0.16444 3 2 ack 40 ------- 0 3.0 0.0 4 13
r 0.16684 3 2 ack 40 ------- 0 3.0 0.0 4 13
+ 0.16684 2 0 ack 40 ------- 0 3.0 0.0 4 13
- 0.16684 2 0 ack 40 ------- 0 3.0 0.0 4 13
r 0.16888 2 0 ack 40 ------- 0 3.0 0.0 4 13
+ 0.16888 0 2 tcp 1000 ------- 0 0.0 3.0 9 14
- 0.16888 0 2 tcp 1000 ------- 0 0.0 3.0 9 14
+ 0.16888 0 2 tcp 1000 ------- 0 0.0 3.0 10 15
- 0.16988 0 2 tcp 1000 ------- 0 0.0 3.0 10 15
r 0.17188 0 2 tcp 1000 ------- 0 0.0 3.0 9 14
+ 0.17188 2 3 tcp 1000 ------- 0 0.0 3.0 9 14
- 0.17244 2 3 tcp 1000 ------- 0 0.0 3.0 6 9
r 0.17288 0 2 tcp 1000 ------- 0 0.0 3.0 10 15
+ 0.17288 2 3 tcp 1000 ------- 0 0.0 3.0 10 15
r 0.17444 2 3 tcp 1000 ------- 0 0.0 3.0 5 8
+ 0.17444 3 2 ack 40 ------- 0 3.0 0.0 5 16
- 0.17444 3 2 ack 40 ------- 0 3.0 0.0 5 16
r 0.17684 3 2 ack 40 ------- 0 3.0 0.0 5 16
+ 0.17684 2 0 ack 40 ------- 0 3.0 0.0 5 16
- 0.17684 2 0 ack 40 ------- 0 3.0 0.0 5 16
r 0.17888 2 0 ack 40 ------- 0 3.0 0.0 5 16
+ 0.17888 0 2 tcp 1000 ------- 0 0.0 3.0 11 17
- 0.17888 0 2 tcp 1000 ------- 0 0.0 3.0 11 17
+ 0.17888 0 2 tcp 1000 ------- 0 0.0 3.0 12 18
- 0.17988 0 2 tcp 1000 ------- 0 0.0 3.0 12 18
r 0.18188 0 2 tcp 1000 ------- 0 0.0 3.0 11 17
+ 0.18188 2 3 tcp 1000 ------- 0 0.0 3.0 11 17
- 0.18244 2 3 tcp 1000 ------- 0 0.0 3.0 7 11
r 0.18288 0 2 tcp 1000 ------- 0 0.0 3.0 12 18
+ 0.18288 2 3 tcp 1000 ------- 0 0.0 3.0 12 18
r 0.18444 2 3 tcp 1000 ------- 0 0.0 3.0 6 9
+ 0.18444 3 2 ack 40 ------- 0 3.0 0.0 6 19
- 0.18444 3 2 ack 40 ------- 0 3.0 0.0 6 19
r 0.18684 3 2 ack 40 ------- 0 3.0 0.0 6 19
+ 0.18684 2 0 ack 40 ------- 0 3.0 0.0 6 19
- 0.18684 2 0 ack 40 ------- 0 3.0 0.0 6 19
r 0.18888 2 0 ack 40 ------- 0 3.0 0.0 6 19
+ 0.18888 0 2 tcp 1000 ------- 0 0.0 3.0 13 20
- 0.18888 0 2 tcp 1000 ------- 0 0.0 3.0 13 20
+ 0.18888 0 2 tcp 1000 ------- 0 0.0 3.0 14 21
- 0.18988 0 2 tcp 1000 ------- 0 0.0 3.0 14 21
r 0.19188 0 2 tcp 1000 ------- 0 0.0 3.0 13 20
+ 0.19188 2 3 tcp 1000 ------- 0 0.0 3.0 13 20
- 0.19244 2 3 tcp 1000 ------- 0 0.0 3.0 8 12
r 0.19288 0 2 tcp 1000 ------- 0 0.0 3.0 14 21
+ 0.19288 2 3 tcp 1000 ------- 0 0.0 3.0 14 21
r 0.19444 2 3 tcp 1000 ------- 0 0.0 3.0 7 11
+ 0.19444 3 2 ack 40 ------- 0 3.0 0.0 7 22
- 0.19444 3 2 ack 40 ------- 0 3.0 0.0 7 22
r 0.19684 3 2 ack 40 ------- 0 3.0 0.0 7 22
+ 0.19684 2 0 ack 40 ------- 0 3.0 0.0 7 22
- 0.19684 2 0 ack 40 ------- 0 3.0 0.0 7 22
r 0.19888 2 0 ack 40 ------- 0 3.0 0.0 7 22
+ 0.19888 0 2 tcp 1000 ------- 0 0.0 3.0 15 23
- 0.19888 0 2 tcp 1000 ------- 0 0.0 3.0 15 23
+ 0.19888 0 2 tcp 1000 ------- 0 0.0 3.0 16 24
- 0.19988 0 2 tcp 1000 ------- 0 0.0 3.0 16 24
r 0.20188 0 2 tcp 1000 ------- 0 0.0 3.0 15 23
+ 0.20188 2 3 tcp 1000 ------- 0 0.0 3.0 15 23
- 0.20244 2 3 tcp 1000 ------- 0 0.0 3.0 9 14
r 0.20288 0 2 tcp 1000 ------- 0 0.0 3.0 16 24
+ 0.20288 2 3 tcp 1000 ------- 0 0.0 3.0 16 24
r 0.20444 2 3 tcp 1000 ------- 0 0.0 3.0 8 12
+ 0.20444 3 2 ack 40 ------- 0 3.0 0.0 8 25
- 0.20444 3 2 ack 40 ------- 0 3.0 0.0 8 25
r 0.20684 3 2 ack 40 ------- 0 3.0 0.0 8 25
+ 0.20684 2 0 ack 40 ------- 0 3.0 0.0 8 25
- 0.20684 2 0 ack 40 ------- 0 3.0 0.0 8 25
r 0.20888 2 0 ack 40 ------- 0 3.0 0.0 8 25
+ 0.20888 0 2 tcp 1000 ------- 0 0.0 3.0 17 26
- 0.20888 0 2 tcp 1000 ------- 0 0.0 3.0 17 26
+ 0.20888 0 2 tcp 1000 ------- 0 0.0 3.0 18 27
- 0.20988 0 2 tcp 1000 ------- 0 0.0 3.0 18 27
r 0.21188 0 2 tcp 1000 ------- 0 0.0 3.0 17 26
+ 0.21188 2 3 tcp 1000 ------- 0 0.0 3.0 17 26
- 0.21244 2 3 tcp 1000 ------- 0 0.0 3.0 10 15
r 0.21288 0 2 tcp 1000 ------- 0 0.0 3.0 18 27
+ 0.21288 2 3 tcp 1000 ------- 0 0.0 3.0 18 27
r 0.21444 2 3 tcp 1000 ------- 0 0.0 3.0 9 14
+ 0.21444 3 2 ack 40 ------- 0 3.0 0.0 9 28
- 0.21444 3 2 ack 40 ------- 0 3.0 0.0 9 28
r 0.21684 3 2 ack 40 ------- 0 3.0 0.0 9 28
+ 0.21684 2 0 ack 40 ------- 0 3.0 0.0 9 28
- 0.21684 2 0 ack 40 ------- 0 3.0 0.0 9 28
r 0.21888 2 0 ack 40 ------- 0 3.0 0.0 9 28
+ 0.21888 0 2 tcp 1000 ------- 0 0.0 3.0 19 29
- 0.21888 0 2 tcp 1000 ------- 0 0.0 3.0 19 29
+ 0.21888 0 2 tcp 1000 ------- 0 0.0 3.0 20 30
- 0.21988 0 2 tcp 1000 ------- 0 0.0 3.0 20 30
r 0.22188 0 2 tcp 1000 ------- 0 0.0 3.0 19 29
+ 0.22188 2 3 tcp 1000 ------- 0 0.0 3.0 19 29
- 0.22244 2 3 tcp 1000 ------- 0 0.0 3.0 11 17
r 0.22288 0 2 tcp 1000 ------- 0 0.0 3.0 20 30
+ 0.22288 2 3 tcp 1000 ------- 0 0.0 3.0 20 30
r 0.22444 2 3 tcp 1000 ------- 0 0.0 3.0 10 15
+ 0.22444 3 2 ack 40 ------- 0 3.0 0.0 10 31
- 0.22444 3 2 ack 40 ------- 0 3.0 0.0 10 31
r 0.22684 3 2 ack 40 ------- 0 3.0 0.0 10 31
+ 0.22684 2 0 ack 40 ------- 0 3.0 0.0 10 31
- 0.22684 2 0 ack 40 ------- 0 3.0 0.0 10 31
r 0.22888 2 0 ack 40 ------- 0 3.0 0.0 10 31
+ 0.22888 0 2 tcp 1000 ------- 0 0.0 3.0 21 32
- 0.22888 0 2 tcp 1000 ------- 0 0.0 3.0 21 32
+ 0.22888 0 2 tcp 1000 ------- 0 0.0 3.0 22 33
- 0.22988 0 2 tcp 1000 ------- 0 0.0 3.0 22 33
r 0.23188 0 2 tcp 1000 ------- 0 0.0 3.0 21 32
+ 0.23188 2 3 tcp 1000 ------- 0 0.0 3.0 21 32
- 0.23244 2 3 tcp 1000 ------- 0 0.0 3.0 12 18
r 0.23288 0 2 tcp 1000 ------- 0 0.0 3.0 22 33
+ 0.23288 2 3 tcp 1000 ------- 0 0.0 3.0 22 33
r 0.23444 2 3 tcp 1000 ------- 0 0.0 3.0 11 17
+ 0.23444 3 2 ack 40 ------- 0 3.0 0.0 11 34
- 0.23444 3 2 ack 40 ------- 0 3.0 0.0 11 34
r 0.23684 3 2 ack 40 ------- 0 3.0 0.0 11 34
+ 0.23684 2 0 ack 40 ------- 0 3.0 0.0 11 34
- 0.23684 2 0 ack 40 ------- 0 3.0 0.0 11 34
r 0.23888 2 0 ack 40 ------- 0 3.0 0.0 11 34
+ 0.23888 0 2 tcp 1000 ------- 0 0.0 3.0 23 35
- 0.23888 0 2 tcp 1000 ------- 0 0.0 3.0 23 35
+ 0.23888 0 2 tcp 1000 ------- 0 0.0 3.0 24 36
- 0.23988 0 2 tcp 1000 ------- 0 0.0 3.0 24 36
r 0.24188 0 2 tcp 1000 ------- 0 0.0 3.0 23 35
+ 0.24188 2 3 tcp 1000 ------- 0 0.0 3.0 23 35
- 0.24244 2 3 tcp 1000 ------- 0 0.0 3.0 13 20
r 0.24288 0 2 tcp 1000 ------- 0 0.0 3.0 24 36
+ 0.24288 2 3 tcp 1000 ------- 0 0.0 3.0 24 36
r 0.24444 2 3 tcp 1000 ------- 0 0.0 3.0 12 18
+ 0.24444 3 2 ack 40 ------- 0 3.0 0.0 12 37
- 0.24444 3 2 ack 40 ------- 0 3.0 0.0 12 37
r 0.24684 3 2 ack 40 ------- 0 3.0 0.0 12 37
+ 0.24684 2 0 ack 40 ------- 0 3.0 0.0 12 37
- 0.24684 2 0 ack 40 ------- 0 3.0 0.0 12 37
r 0.24888 2 0 ack 40 ------- 0 3.0 0.0 12 37
+ 0.24888 0 2 tcp 1000 ------- 0 0.0 3.0 25 38
- 0.24888 0 2 tcp 1000 ------- 0 0.0 3.0 25 38
+ 0.24888 0 2 tcp 1000 ------- 0 0.0 3.0 26 39
- 0.24988 0 2 tcp 1000 ------- 0 0.0 3.0 26 39
r 0.25188 0 2 tcp 1000 ------- 0 0.0 3.0 25 38
+ 0.25188 2 3 tcp 1000 ------- 0 0.0 3.0 25 38
- 0.25244 2 3 tcp 1000 ------- 0 0.0 3.0 14 21
r 0.25288 0 2 tcp 1000 ------- 0 0.0 3.0 26 39
+ 0.25288 2 3 tcp 1000 ------- 0 0.0 3.0 26 39
r 0.25444 2 3 tcp 1000 ------- 0 0.0 3.0 13 20
+ 0.25444 3 2 ack 40 ------- 0 3.0 0.0 13 40
- 0.25444 3 2 ack 40 ------- 0 3.0 0.0 13 40
r 0.25684 3 2 ack 40 ------- 0 3.0 0.0 13 40
+ 0.25684 2 0 ack 40 ------- 0 3.0 0.0 13 40
- 0.25684 2 0 ack 40 ------- 0 3.0 0.0 13 40
r 0.25888 2 0 ack 40 ------- 0 3.0 0.0 13 40
+ 0.25888 0 2 tcp 1000 ------- 0 0.0 3.0 27 41
- 0.25888 0 2 tcp 1000 ------- 0 0.0 3.0 27 41
+ 0.25888 0 2 tcp 1000 ------- 0 0.0 3.0 28 42
- 0.25988 0 2 tcp 1000 ------- 0 0.0 3.0 28 42
r 0.26188 0 2 tcp 1000 ------- 0 0.0 3.0 27 41
+ 0.26188 2 3 tcp 1000 ------- 0 0.0 3.0 27 41
- 0.26244 2 3 tcp 1000 ------- 0 0.0 3.0 15 23
r 0.26288 0 2 tcp 1000 ------- 0 0.0 3.0 28 42
+ 0.26288 2 3 tcp 1000 ------- 0 0.0 3.0 28 42
r 0.26444 2 3 tcp 1000 ------- 0 0.0 3.0 14 21
+ 0.26444 3 2 ack 40 ------- 0 3.0 0.0 14 43
- 0.26444 3 2 ack 40 ------- 0 3.0 0.0 14 43
r 0.26684 3 2 ack 40 ------- 0 3.0 0.0 14 43
+ 0.26684 2 0 ack 40 ------- 0 3.0 0.0 14 43
- 0.26684 2 0 ack 40 ------- 0 3.0 0.0 14 43
r 0.26888 2 0 ack 40 ------- 0 3.0 0.0 14 43
+ 0.26888 0 2 tcp 1000 ------- 0 0.0 3.0 29 44
- 0.26888 0 2 tcp 1000 ------- 0 0.0 3.0 29 44
+ 0.26888 0 2 tcp 1000 ------- 0 0.0 3.0 30 45
- 0.26988 0 2 tcp 1000 ------- 0 0.0 3.0 30 45
r 0.27188 0 2 tcp 1000 ------- 0 0.0 3.0 29 44
+ 0.27188 2 3 tcp 1000 ------- 0 0.0 3.0 29 44
- 0.27244 2 3 tcp 1000 ------- 0 0.0 3.0 16 24
r 0.27288 0 2 tcp 1000 ------- 0 0.0 3.0 30 45
+ 0.27288 2 3 tcp 1000 ------- 0 0.0 3.0 30 45
r 0.27444 2 3 tcp 1000 ------- 0 0.0 3.0 15 23
+ 0.27444 3 2 ack 40 ------- 0 3.0 0.0 15 46
- 0.27444 3 2 ack 40 ------- 0 3.0 0.0 15 46
r 0.27684 3 2 ack 40 ------- 0 3.0 0.0 15 46
+ 0.27684 2 0 ack 40 ------- 0 3.0 0.0 15 46
- 0.27684 2 0 ack 40 ------- 0 3.0 0.0 15 46
r 0.27888 2 0 ack 40 ------- 0 3.0 0.0 15 46
+ 0.27888 0 2 tcp 1000 ------- 0 0.0 3.0 31 47
- 0.27888 0 2 tcp 1000 ------- 0 0.0 3.0 31 47
+ 0.27888 0 2 tcp 1000 ------- 0 0.0 3.0 32 48
- 0.27988 0 2 tcp 1000 ------- 0 0.0 3.0 32 48
r 0.28188 0 2 tcp 1000 ------- 0 0.0 3.0 31 47
+ 0.28188 2 3 tcp 1000 ------- 0 0.0 3.0 31 47
- 0.28244 2 3 tcp 1000 ------- 0 0.0 3.0 17 26
r 0.28288 0 2 tcp 1000 ------- 0 0.0 3.0 32 48
+ 0.28288 2 3 tcp 1000 ------- 0 0.0 3.0 32 48
r 0.28444 2 3 tcp 1000 ------- 0 0.0 3.0 16 24
+ 0.28444 3 2 ack 40 ------- 0 3.0 0.0 16 49
- 0.28444 3 2 ack 40 ------- 0 3.0 0.0 16 49
r 0.28684 3 2 ack 40 ------- 0 3.0 0.0 16 49
+ 0.28684 2 0 ack 40 ------- 0 3.0 0.0 16 49
- 0.28684 2 0 ack 40 ------- 0 3.0 0.0 16 49
r 0.28888 2 0 ack 40 ------- 0 3.0 0.0 16 49
+ 0.28888 0 2 tcp 1000 ------- 0 0.0 3.0 33 50
- 0.28888 0 2 tcp 1000 ------- 0 0.0 3.0 33 50
+ 0.28888 0 2 tcp 1000 ------- 0 0.0 3.0 34 51
- 0.28988 0 2 tcp 1000 ------- 0 0.0 3.0 34 51
r 0.29188 0 2 tcp 1000 ------- 0 0.0 3.0 33 50
+ 0.29188 2 3 tcp 1000 ------- 0 0.0 3.0 33 50
- 0.29244 2 3 tcp 1000 ------- 0 0.0 3.0 18 27
r 0.29288 0 2 tcp 1000 ------- 0 0.0 3.0 34 51
+ 0.29288 2 3 tcp 1000 ------- 0 0.0 3.0 34 51
r 0.29444 2 3 tcp 1000 ------- 0 0.0 3.0 17 26
+ 0.29444 3 2 ack 40 ------- 0 3.0 0.0 17 52
- 0.29444 3 2 ack 40 ------- 0 3.0 0.0 17 52
r 0.29684 3 2 ack 40 ------- 0 3.0 0.0 17 52
+ 0.29684 2 0 ack 40 ------- 0 3.0 0.0 17 52
- 0.29684 2 0 ack 40 ------- 0 3.0 0.0 17 52
r 0.29888 2 0 ack 40 ------- 0 3.0 0.0 17 52
+ 0.29888 0 2 tcp 1000 ------- 0 0.0 3.0 35 53
- 0.29888 0 2 tcp 1000 ------- 0 0.0 3.0 35 53
+ 0.29888 0 2 tcp 1000 ------- 0 0.0 3.0 36 54
- 0.29988 0 2 tcp 1000 ------- 0 0.0 3.0 36 54
r 0.30188 0 2 tcp 1000 ------- 0 0.0 3.0 35 53
+ 0.30188 2 3 tcp 1000 ------- 0 0.0 3.0 35 53
- 0.30244 2 3 tcp 1000 ------- 0 0.0 3.0 19 29
r 0.30288 0 2 tcp 1000 ------- 0 0.0 3.0 36 54
+ 0.30288 2 3 tcp 1000 ------- 0 0.0 3.0 36 54
r 0.30444 2 3 tcp 1000 ------- 0 0.0 3.0 18 27
+ 0.30444 3 2 ack 40 ------- 0 3.0 0.0 18 55
- 0.30444 3 2 ack 40 ------- 0 3.0 0.0 18 55
r 0.30684 3 2 ack 40 ------- 0 3.0 0.0 18 55
+ 0.30684 2 0 ack 40 ------- 0 3.0 0.0 18 55
- 0.30684 2 0 ack 40 ------- 0 3.0 0.0 18 55
r 0.30888 2 0 ack 40 ------- 0 3.0 0.0 18 55
+ 0.30888 0 2 tcp 1000 ------- 0 0.0 3.0 37 56
- 0.30888 0 2 tcp 1000 ------- 0 0.0 3.0 37 56
+ 0.30888 0 2 tcp 1000 ------- 0 0.0 3.0 38 57
- 0.30988 0 2 tcp 1000 ------- 0 0.0 3.0 38 57
r 0.31188 0 2 tcp 1000 ------- 0 0.0 3.0 37 56
+ 0.31188 2 3 tcp 1000 ------- 0 0.0 3.0 37 56
- 0.31244 2 3 tcp 1000 ------- 0 0.0 3.0 20 30
r 0.31288 0 2 tcp 1000 ------- 0 0.0 3.0 38 57
+ 0.31288 2 3 tcp 1000 ------- 0 0.0 3.0 38 57
r 0.31444 2 3 tcp 1000 ------- 0 0.0 3.0 19 29
+ 0.31444 3 2 ack 40 ------- 0 3.0 0.0 19 58
- 0.31444 3 2 ack 40 ------- 0 3.0 0.0 19 58
r 0.31684 3 2 ack 40 ------- 0 3.0 0.0 19 58
+ 0.31684 2 0 ack 40 ------- 0 3.0 0.0 19 58
- 0.31684 2 0 ack 40 ------- 0 3.0 0.0 19 58
r 0.31888 2 0 ack 40 ------- 0 3.0 0.0 19 58
+ 0.31888 0 2 tcp 1000 ------- 0 0.0 3.0 39 59
- 0.31888 0 2 tcp 1000 ------- 0 0.0 3.0 39 59
r 0.32188 0 2 tcp 1000 ------- 0 0.0 3.0 39 59
+ 0.32188 2 3 tcp 1000 ------- 0 0.0 3.0 39 59
- 0.32244 2 3 tcp 1000 ------- 0 0.0 3.0 21 32
r 0.32444 2 3 tcp 1000 ------- 0 0.0 3.0 20 30
+ 0.32444 3 2 ack 40 ------- 0 3.0 0.0 20 60
- 0.32444 3 2 ack 40 ------- 0 3.0 0.0 20 60
r 0.32684 3 2 ack 40 ------- 0 3.0 0.0 20 60
+ 0.32684 2 0 ack 40 ------- 0 3.0 0.0 20 60
- 0.32684 2 0 ack 40 ------- 0 3.0 0.0 20 60
r 0.32888 2 0 ack 40 ------- 0 3.0 0.0 20 60
+ 0.32888 0 2 tcp 1000 ------- 0 0.0 3.0 40 61
- 0.32888 0 2 tcp 1000 ------- 0 0.0 3.0 40 61
r 0.33188 0 2 tcp 1000 ------- 0 0.0 3.0 40 61
+ 0.33188 2 3 tcp 1000 ------- 0 0.0 3.0 40 61
- 0.33244 2 3 tcp 1000 ------- 0 0.0 3.0 22 33
r 0.33444 2 3 tcp 1000 ------- 0 0.0 3.0 21 32
+ 0.33444 3 2 ack 40 ------- 0 3.0 0.0 21 62
- 0.33444 3 2 ack 40 ------- 0 3.0 0.0 21 62
r 0.33684 3 2 ack 40 ------- 0 3.0 0.0 21 62
+ 0.33684 2 0 ack 40 ------- 0 3.0 0.0 21 62
- 0.33684 2 0 ack 40 ------- 0 3.0 0.0 21 62
r 0.33888 2 0 ack 40 ------- 0 3.0 0.0 21 62
+ 0.33888 0 2 tcp 1000 ------- 0 0.0 3.0 41 63
- 0.33888 0 2 tcp 1000 ------- 0 0.0 3.0 41 63
r 0.34188 0 2 tcp 1000 ------- 0 0.0 3.0 41 63
+ 0.34188 2 3 tcp 1000 ------- 0 0.0 3.0 41 63
- 0.34244 2 3 tcp 1000 ------- 0 0.0 3.0 23 35
r 0.34444 2 3 tcp 1000 ------- 0 0.0 3.0 22 33
+ 0.34444 3 2 ack 40 ------- 0 3.0 0.0 22 64
- 0.34444 3 2 ack 40 ------- 0 3.0 0.0 22 64
r 0.34684 3 2 ack 40 ------- 0 3.0 0.0 22 64
+ 0.34684 2 0 ack 40 ------- 0 3.0 0.0 22 64
- 0.34684 2 0 ack 40 ------- 0 3.0 0.0 22 64
r 0.34888 2 0 ack 40 ------- 0 3.0 0.0 22 64
+ 0.34888 0 2 tcp 1000 ------- 0 0.0 3.0 42 65
- 0.34888 0 2 tcp 1000 ------- 0 0.0 3.0 42 65
r 0.35188 0 2 tcp 1000 ------- 0 0.0 3.0 42 65
+ 0.35188 2 3 tcp 1000 ------- 0 0.0 3.0 42 65
- 0.35244 2 3 tcp 1000 ------- 0 0.0 3.0 24 36
r 0.35444 2 3 tcp 1000 ------- 0 0.0 3.0 23 35
+ 0.35444 3 2 ack 40 ------- 0 3.0 0.0 23 66
- 0.35444 3 2 ack 40 ------- 0 3.0 0.0 23 66
r 0.35684 3 2 ack 40 ------- 0 3.0 0.0 23 66
+ 0.35684 2 0 ack 40 ------- 0 3.0 0.0 23 66
- 0.35684 2 0 ack 40 ------- 0 3.0 0.0 23 66
r 0.35888 2 0 ack 40 ------- 0 3.0 0.0 23 66
+ 0.35888 0 2 tcp 1000 ------- 0 0.0 3.0 43 67
- 0.35888 0 2 tcp 1000 ------- 0 0.0 3.0 43 67
r 0.36188 0 2 tcp 1000 ------- 0 0.0 3.0 43 67
+ 0.36188 2 3 tcp 1000 ------- 0 0.0 3.0 43 67
- 0.36244 2 3 tcp 1000 ------- 0 0.0 3.0 25 38
r 0.36444 2 3 tcp 1000 ------- 0 0.0 3.0 24 36
+ 0.36444 3 2 ack 40 ------- 0 3.0 0.0 24 68
- 0.36444 3 2 ack 40 ------- 0 3.0 0.0 24 68
r 0.36684 3 2 ack 40 ------- 0 3.0 0.0 24 68
+ 0.36684 2 0 ack 40 ------- 0 3.0 0.0 24 68
- 0.36684 2 0 ack 40 ------- 0 3.0 0.0 24 68
r 0.36888 2 0 ack 40 ------- 0 3.0 0.0 24 68
+ 0.36888 0 2 tcp 1000 ------- 0 0.0 3.0 44 69
- 0.36888 0 2 tcp 1000 ------- 0 0.0 3.0 44 69
r 0.37188 0 2 tcp 1000 ------- 0 0.0 3.0 44 69
+ 0.37188 2 3 tcp 1000 ------- 0 0.0 3.0 44 69
- 0.37244 2 3 tcp 1000 ------- 0 0.0 3.0 26 39
r 0.37444 2 3 tcp 1000 ------- 0 0.0 3.0 25 38
+ 0.37444 3 2 ack 40 ------- 0 3.0 0.0 25 70
- 0.37444 3 2 ack 40 ------- 0 3.0 0.0 25 70
r 0.37684 3 2 ack 40 ------- 0 3.0 0.0 25 70
+ 0.37684 2 0 ack 40 ------- 0 3.0 0.0 25 70
- 0.37684 2 0 ack 40 ------- 0 3.0 0.0 25 70
r 0.37888 2 0 ack 40 ------- 0 3.0 0.0 25 70
+ 0.37888 0 2 tcp 1000 ------- 0 0.0 3.0 45 71
- 0.37888 0 2 tcp 1000 ------- 0 0.0 3.0 45 71
r 0.38188 0 2 tcp 1000 ------- 0 0.0 3.0 45 71
+ 0.38188 2 3 tcp 1000 ------- 0 0.0 3.0 45 71
- 0.38244 2 3 tcp 1000 ------- 0 0.0 3.0 27 41
r 0.38444 2 3 tcp 1000 ------- 0 0.0 3.0 26 39
+ 0.38444 3 2 ack 40 ------- 0 3.0 0.0 26 72
- 0.38444 3 2 ack 40 ------- 0 3.0 0.0 26 72
r 0.38684 3 2 ack 40 ------- 0 3.0 0.0 26 72
+ 0.38684 2 0 ack 40 ------- 0 3.0 0.0 26 72
- 0.38684 2 0 ack 40 ------- 0 3.0 0.0 26 72
r 0.38888 2 0 ack 40 ------- 0 3.0 0.0 26 72
+ 0.38888 0 2 tcp 1000 ------- 0 0.0 3.0 46 73
- 0.38888 0 2 tcp 1000 ------- 0 0.0 3.0 46 73
r 0.39188 0 2 tcp 1000 ------- 0 0.0 3.0 46 73
+ 0.39188 2 3 tcp 1000 ------- 0 0.0 3.0 46 73
- 0.39244 2 3 tcp 1000 ------- 0 0.0 3.0 28 42
r 0.39444 2 3 tcp 1000 ------- 0 0.0 3.0 27 41
+ 0.39444 3 2 ack 40 ------- 0 3.0 0.0 27 74
- 0.39444 3 2 ack 40 ------- 0 3.0 0.0 27 74
r 0.39684 3 2 ack 40 ------- 0 3.0 0.0 27 74
+ 0.39684 2 0 ack 40 ------- 0 3.0 0.0 27 74
- 0.39684 2 0 ack 40 ------- 0 3.0 0.0 27 74
r 0.39888 2 0 ack 40 ------- 0 3.0 0.0 27 74
+ 0.39888 0 2 tcp 1000 ------- 0 0.0 3.0 47 75
- 0.39888 0 2 tcp 1000 ------- 0 0.0 3.0 47 75
+ 0.4 1 2 tcp 1000 ------- 1 1.0 3.1 0 76
- 0.4 1 2 tcp 1000 ------- 1 1.0 3.1 0 76
r 0.40188 0 2 tcp 1000 ------- 0 0.0 3.0 47 75
+ 0.40188 2 3 tcp 1000 ------- 0 0.0 3.0 47 75
- 0.40244 2 3 tcp 1000 ------- 0 0.0 3.0 29 44
r 0.40444 2 3 tcp 1000 ------- 0 0.0 3.0 28 42
+ 0.40444 3 2 ack 40 ------- 0 3.0 0.0 28 77
- 0.40444 3 2 ack 40 ------- 0 3.0 0.0 28 77
r 0.40684 3 2 ack 40 ------- 0 3.0 0.0 28 77
+ 0.40684 2 0 ack 40 ------- 0 3.0 0.0 28 77
- 0.40684 2 0 ack 40 ------- 0 3.0 0.0 28 77
r 0.40888 2 0 ack 40 ------- 0 3.0 0.0 28 77
+ 0.40888 0 2 tcp 1000 ------- 0 0.0 3.0 48 78
- 0.40888 0 2 tcp 1000 ------- 0 0.0 3.0 48 78
r 0.41188 0 2 tcp 1000 ------- 0 0.0 3.0 48 78
+ 0.41188 2 3 tcp 1000 ------- 0 0.0 3.0 48 78
- 0.41244 2 3 tcp 1000 ------- 0 0.0 3.0 30 45
r 0.41444 2 3 tcp 1000 ------- 0 0.0 3.0 29 44
+ 0.41444 3 2 ack 40 ------- 0 3.0 0.0 29 79
- 0.41444 3 2 ack 40 ------- 0 3.0 0.0 29 79
r 0.41684 3 2 ack 40 ------- 0 3.0 0.0 29 79
+ 0.41684 2 0 ack 40 ------- 0 3.0 0.0 29 79
- 0.41684 2 0 ack 40 ------- 0 3.0 0.0 29 79
r 0.41888 2 0 ack 40 ------- 0 3.0 0.0 29 79
+ 0.41888 0 2 tcp 1000 ------- 0 0.0 3.0 49 80
- 0.41888 0 2 tcp 1000 ------- 0 0.0 3.0 49 80
r 0.421 1 2 tcp 1000 ------- 1 1.0 3.1 0 76
+ 0.421 2 3 tcp 1000 ------- 1 1.0 3.1 0 76
r 0.42188 0 2 tcp 1000 ------- 0 0.0 3.0 49 80
+ 0.42188 2 3 tcp 1000 ------- 0 0.0 3.0 49 80
- 0.42244 2 3 tcp 1000 ------- 1 1.0 3.1 0 76
r 0.42444 2 3 tcp 1000 ------- 0 0.0 3.0 30 45
+ 0.42444 3 2 ack 40 ------- 0 3.0 0.0 30 81
- 0.42444 3 2 ack 40 ------- 0 3.0 0.0 30 81
r 0.42684 3 2 ack 40 ------- 0 3.0 0.0 30 81
+ 0.42684 2 0 ack 40 ------- 0 3.0 0.0 30 81
- 0.42684 2 0 ack 40 ------- 0 3.0 0.0 30 81
r 0.42888 2 0 ack 40 ------- 0 3.0 0.0 30 81
+ 0.42888 0 2 tcp 1000 ------- 0 0.0 3.0 50 82
- 0.42888 0 2 tcp 1000 ------- 0 0.0 3.0 50 82
r 0.43188 0 2 tcp 1000 ------- 0 0.0 3.0 50 82
+ 0.43188 2 3 tcp 1000 ------- 0 0.0 3.0 50 82
- 0.43244 2 3 tcp 1000 ------- 0 0.0 3.0 31 47
r 0.43444 2 3 tcp 1000 ------- 1 1.0 3.1 0 76
+ 0.43444 3 2 ack 40 ------- 1 3.1 1.0 0 83
- 0.43444 3 2 ack 40 ------- 1 3.1 1.0 0 83
r 0.43684 3 2 ack 40 ------- 1 3.1 1.0 0 83
+ 0.43684 2 1 ack 40 ------- 1 3.1 1.0 0 83
- 0.43684 2 1 ack 40 ------- 1 3.1 1.0 0 83
- 0.44244 2 3 tcp 1000 ------- 0 0.0 3.0 32 48
r 0.44444 2 3 tcp 1000 ------- 0 0.0 3.0 31 47
+ 0.44444 3 2 ack 40 ------- 0 3.0 0.0 31 84
- 0.44444 3 2 ack 40 ------- 0 3.0 0.0 31 84
r 0.44684 3 2 ack 40 ------- 0 3.0 0.0 31 84
+ 0.44684 2 0 ack 40 ------- 0 3.0 0.0 31 84
- 0.44684 2 0 ack 40 ------- 0 3.0 0.0 31 84
r 0.44888 2 0 ack 40 ------- 0 3.0 0.0 31 84
+ 0.44888 0 2 tcp 1000 ------- 0 0.0 3.0 51 85
- 0.44888 0 2 tcp 1000 ------- 0 0.0 3.0 51 85
r 0.45188 0 2 tcp 1000 ------- 0 0.0 3.0 51 85
+ 0.45188 2 3 tcp 1000 ------- 0 0.0 3.0 51 85
- 0.45244 2 3 tcp 1000 ------- 0 0.0 3.0 33 50
r 0.45444 2 3 tcp 1000 ------- 0 0.0 3.0 32 48
+ 0.45444 3 2 ack 40 ------- 0 3.0 0.0 32 86
- 0.45444 3 2 ack 40 ------- 0 3.0 0.0 32 86
r 0.45684 3 2 ack 40 ------- 0 3.0 0.0 32 86
+ 0.45684 2 0 ack 40 ------- 0 3.0 0.0 32 86
- 0.45684 2 0 ack 40 ------- 0 3.0 0.0 32 86
r 0.45688 2 1 ack 40 ------- 1 3.1 1.0 0 83
+ 0.45688 1 2 tcp 1000 ------- 1 1.0 3.1 1 87
- 0.45688 1 2 tcp 1000 ------- 1 1.0 3.1 1 87
+ 0.45688 1 2 tcp 1000 ------- 1 1.0 3.1 2 88
- 0.45788 1 2 tcp 1000 ------- 1 1.0 3.1 2 88
r 0.45888 2 0 ack 40 ------- 0 3.0 0.0 32 86
+ 0.45888 0 2 tcp 1000 ------- 0 0.0 3.0 52 89
- 0.45888 0 2 tcp 1000 ------- 0 0.0 3.0 52 89
r 0.46188 0 2 tcp 1000 ------- 0 0.0 3.0 52 89
+ 0.46188 2 3 tcp 1000 ------- 0 0.0 3.0 52 89
- 0.46244 2 3 tcp 1000 ------- 0 0.0 3.0 34 51
r 0.46444 2 3 tcp 1000 ------- 0 0.0 3.0 33 50
+ 0.46444 3 2 ack 40 ------- 0 3.0 0.0 33 90
- 0.46444 3 2 ack 40 ------- 0 3.0 0.0 33 90
r 0.46684 3 2 ack 40 ------- 0 3.0 0.0 33 90
+ 0.46684 2 0 ack 40 ------- 0 3.0 0.0 33 90
- 0.46684 2 0 ack 40 ------- 0 3.0 0.0 33 90
r 0.46888 2 0 ack 40 ------- 0 3.0 0.0 33 90
+ 0.46888 0 2 tcp 1000 ------- 0 0.0 3.0 53 91
- 0.46888 0 2 tcp 1000 ------- 0 0.0 3.0 53 91
r 0.47188 0 2 tcp 1000 ------- 0 0.0 3.0 53 91
+ 0.47188 2 3 tcp 1000 ------- 0 0.0 3.0 53 91
- 0.47244 2 3 tcp 1000 ------- 0 0.0 3.0 35 53
r 0.47444 2 3 tcp 1000 ------- 0 0.0 3.0 34 51
+ 0.47444 3 2 ack 40 ------- 0 3.0 0.0 34 92
- 0.47444 3 2 ack 40 ------- 0 3.0 0.0 34 92
r 0.47684 3 2 ack 40 ------- 0 3.0 0.0 34 92
+ 0.47684 2 0 ack 40 ------- 0 3.0 0.0 34 92
- 0.47684 2 0 ack 40 ------- 0 3.0 0.0 34 92
r 0.47788 1 2 tcp 1000 ------- 1 1.0 3.1 1 87
+ 0.47788 2 3 tcp 1000 ------- 1 1.0 3.1 1 87
r 0.47888 1 2 tcp 1000 ------- 1 1.0 3.1 2 88
+ 0.47888 2 3 tcp 1000 ------- 1 1.0 3.1 2 88
r 0.47888 2 0 ack 40 ------- 0 3.0 0.0 34 92
+ 0.47888 0 2 tcp 1000 ------- 0 0.0 3.0 54 93
- 0.47888 0 2 tcp 1000 ------- 0 0.0 3.0 54 93
r 0.48188 0 2 tcp 1000 ------- 0 0.0 3.0 54 93
+ 0.48188 2 3 tcp 1000 ------- 0 0.0 3.0 54 93
- 0.48244 2 3 tcp 1000 ------- 0 0.0 3.0 36 54
r 0.48444 2 3 tcp 1000 ------- 0 0.0 3.0 35 53
+ 0.48444 3 2 ack 40 ------- 0 3.0 0.0 35 94
- 0.48444 3 2 ack 40 ------- 0 3.0 0.0 35 94
r 0.48684 3 2 ack 40 ------- 0 3.0 0.0 35 94
+ 0.48684 2 0 ack 40 ------- 0 3.0 0.0 35 94
- 0.48684 2 0 ack 40 ------- 0 3.0 0.0 35 94
r 0.48888 2 0 ack 40 ------- 0 3.0 0.0 35 94
+ 0.48888 0 2 tcp 1000 ------- 0 0.0 3.0 55 95
- 0.48888 0 2 tcp 1000 ------- 0 0.0 3.0 55 95
r 0.49188 0 2 tcp 1000 ------- 0 0.0 3.0 55 95
+ 0.49188 2 3 tcp 1000 ------- 0 0.0 3.0 55 95
- 0.49244 2 3 tcp 1000 ------- 1 1.0 3.1 1 87
r 0.49444 2 3 tcp 1000 ------- 0 0.0 3.0 36 54
+ 0.49444 3 2 ack 40 ------- 0 3.0 0.0 36 96
- 0.49444 3 2 ack 40 ------- 0 3.0 0.0 36 96
r 0.49684 3 2 ack 40 ------- 0 3.0 0.0 36 96
+ 0.49684 2 0 ack 40 ------- 0 3.0 0.0 36 96
- 0.49684 2 0 ack 40 ------- 0 3.0 0.0 36 96
r 0.49888 2 0 ack 40 ------- 0 3.0 0.0 36 96
+ 0.49888 0 2 tcp 1000 ------- 0 0.0 3.0 56 97
- 0.49888 0 2 tcp 1000 ------- 0 0.0 3.0 56 97
r 0.50188 0 2 tcp 1000 ------- 0 0.0 3.0 56 97
+ 0.50188 2 3 tcp 1000 ------- 0 0.0 3.0 56 97
- 0.50244 2 3 tcp 1000 ------- 0 0.0 3.0 37 56
r 0.50444 2 3 tcp 1000 ------- 1 1.0 3.1 1 87
+ 0.50444 3 2 ack 40 ------- 1 3.1 1.0 1 98
- 0.50444 3 2 ack 40 ------- 1 3.1 1.0 1 98
r 0.50684 3 2 ack 40 ------- 1 3.1 1.0 1 98
+ 0.50684 2 1 ack 40 ------- 1 3.1 1.0 1 98
- 0.50684 2 1 ack 40 ------- 1 3.1 1.0 1 98
- 0.51244 2 3 tcp 1000 ------- 1 1.0 3.1 2 88
r 0.51444 2 3 tcp 1000 ------- 0 0.0 3.0 37 56
+ 0.51444 3 2 ack 40 ------- 0 3.0 0.0 37 99
- 0.51444 3 2 ack 40 ------- 0 3.0 0.0 37 99
r 0.51684 3 2 ack 40 ------- 0 3.0 0.0 37 99
+ 0.51684 2 0 ack 40 ------- 0 3.0 0.0 37 99
- 0.51684 2 0 ack 40 ------- 0 3.0 0.0 37 99
r 0.51888 2 0 ack 40 ------- 0 3.0 0.0 37 99
+ 0.51888 0 2 tcp 1000 ------- 0 0.0 3.0 57 100
- 0.51888 0 2 tcp 1000 ------- 0 0.0 3.0 57 100
r 0.52188 0 2 tcp 1000 ------- 0 0.0 3.0 57 100
+ 0.52188 2 3 tcp 1000 ------- 0 0.0 3.0 57 100
- 0.52244 2 3 tcp 1000 ------- 0 0.0 3.0 38 57
r 0.52444 2 3 tcp 1000 ------- 1 1.0 3.1 2 88
+ 0.52444 3 2 ack 40 ------- 1 3.1 1.0 2 101
- 0.52444 3 2 ack 40 ------- 1 3.1 1.0 2 101
r 0.52684 3 2 ack 40 ------- 1 3.1 1.0 2 101
+ 0.52684 2 1 ack 40 ------- 1 3.1 1.0 2 101
- 0.52684 2 1 ack 40 ------- 1 3.1 1.0 2 101
r 0.52688 2 1 ack 40 ------- 1 3.1 1.0 1 98
+ 0.52688 1 2 tcp 1000 ------- 1 1.0 3.1 3 102
- 0.52688 1 2 tcp 1000 ------- 1 1.0 3.1 3 102
+ 0.52688 1 2 tcp 1000 ------- 1 1.0 3.1 4 103
- 0.52788 1 2 tcp 1000 ------- 1 1.0 3.1 4 103
- 0.53244 2 3 tcp 1000 ------- 0 0.0 3.0 39 59
r 0.53444 2 3 tcp 1000 ------- 0 0.0 3.0 38 57
+ 0.53444 3 2 ack 40 ------- 0 3.0 0.0 38 104
- 0.53444 3 2 ack 40 ------- 0 3.0 0.0 38 104
r 0.53684 3 2 ack 40 ------- 0 3.0 0.0 38 104
+ 0.53684 2 0 ack 40 ------- 0 3.0 0.0 38 104
- 0.53684 2 0 ack 40 ------- 0 3.0 0.0 38 104
r 0.53888 2 0 ack 40 ------- 0 3.0 0.0 38 104
+ 0.53888 0 2 tcp 1000 ------- 0 0.0 3.0 58 105
- 0.53888 0 2 tcp 1000 ------- 0 0.0 3.0 58 105
r 0.54188 0 2 tcp 1000 ------- 0 0.0 3.0 58 105
+ 0.54188 2 3 tcp 1000 ------- 0 0.0 3.0 58 105
- 0.54244 2 3 tcp 1000 ------- 0 0.0 3.0 40 61
r 0.54444 2 3 tcp 1000 ------- 0 0.0 3.0 39 59
+ 0.54444 3 2 ack 40 ------- 0 3.0 0.0 39 106
- 0.54444 3 2 ack 40 ------- 0 3.0 0.0 39 106
r 0.54684 3 2 ack 40 ------- 0 3.0 0.0 39 106
+ 0.54684 2 0 ack 40 ------- 0 3.0 0.0 39 106
- 0.54684 2 0 ack 40 ------- 0 3.0 0.0 39 106
r 0.54688 2 1 ack 40 ------- 1 3.1 1.0 2 101
+ 0.54688 1 2 tcp 1000 ------- 1 1.0 3.1 5 107
- 0.54688 1 2 tcp 1000 ------- 1 1.0 3.1 5 107
+ 0.54688 1 2 tcp 1000 ------- 1 1.0 3.1 6 108
r 0.54788 1 2 tcp 1000 ------- 1 1.0 3.1 3 102
+ 0.54788 2 3 tcp 1000 ------- 1 1.0 3.1 3 102
- 0.54788 1 2 tcp 1000 ------- 1 1.0 3.1 6 108
r 0.54888 1 2 tcp 1000 ------- 1 1.0 3.1 4 103
+ 0.54888 2 3 tcp 1000 ------- 1 1.0 3.1 4 103
r 0.54888 2 0 ack 40 ------- 0 3.0 0.0 39 106
+ 0.54888 0 2 tcp 1000 ------- 0 0.0 3.0 59 109
- 0.54888 0 2 tcp 1000 ------- 0 0.0 3.0 59 109
r 0.55188 0 2 tcp 1000 ------- 0 0.0 3.0 59 109
+ 0.55188 2 3 tcp 1000 ------- 0 0.0 3.0 59 109
- 0.55244 2 3 tcp 1000 ------- 0 0.0 3.0 41 63
r 0.55444 2 3 tcp 1000 ------- 0 0.0 3.0 40 61
+ 0.55444 3 2 ack 40 ------- 0 3.0 0.0 40 110
- 0.55444 3 2 ack 40 ------- 0 3.0 0.0 40 110
r 0.55684 3 2 ack 40 ------- 0 3.0 0.0 40 110
+ 0.55684 2 0 ack 40 ------- 0 3.0 0.0 40 110
- 0.55684 2 0 ack 40 ------- 0 3.0 0.0 40 110
r 0.55888 2 0 ack 40 ------- 0 3.0 0.0 40 110
+ 0.55888 0 2 tcp 1000 ------- 0 0.0 3.0 60 111
- 0.55888 0 2 tcp 1000 ------- 0 0.0 3.0 60 111
r 0.56188 0 2 tcp 1000 ------- 0 0.0 3.0 60 111
+ 0.56188 2 3 tcp 1000 ------- 0 0.0 3.0 60 111
- 0.56244 2 3 tcp 1000 ------- 1 1.0 3.1 3 102
r 0.56444 2 3 tcp 1000 ------- 0 0.0 3.0 41 63
+ 0.56444 3 2 ack 40 ------- 0 3.0 0.0 41 112
- 0.56444 3 2 ack 40 ------- 0 3.0 0.0 41 112
r 0.56684 3 2 ack 40 ------- 0 3.0 0.0 41 112
+ 0.56684 2 0 ack 40 ------- 0 3.0 0.0 41 112
- 0.56684 2 0 ack 40 ------- 0 3.0 0.0 41 112
r 0.56788 1 2 tcp 1000 ------- 1 1.0 3.1 5 107
+ 0.56788 2 3 tcp 1000 ------- 1 1.0 3.1 5 107
r 0.56888 1 2 tcp 1000 ------- 1 1.0 3.1 6 108
+ 0.56888 2 3 tcp 1000 ------- 1 1.0 3.1 6 108
r 0.56888 2 0 ack 40 ------- 0 3.0 0.0 41 112
+ 0.56888 0 2 tcp 1000 ------- 0 0.0 3.0 61 113
- 0.56888 0 2 tcp 1000 ------- 0 0.0 3.0 61 113
r 0.57188 0 2 tcp 1000 ------- 0 0.0 3.0 61 113
+ 0.57188 2 3 tcp 1000 ------- 0 0.0 3.0 61 113
- 0.57244 2 3 tcp 1000 ------- 0 0.0 3.0 42 65
r 0.57444 2 3 tcp 1000 ------- 1 1.0 3.1 3 102
+ 0.57444 3 2 ack 40 ------- 1 3.1 1.0 3 114
- 0.57444 3 2 ack 40 ------- 1 3.1 1.0 3 114
r 0.57684 3 2 ack 40 ------- 1 3.1 1.0 3 114
+ 0.57684 2 1 ack 40 ------- 1 3.1 1.0 3 114
- 0.57684 2 1 ack 40 ------- 1 3.1 1.0 3 114
- 0.58244 2 3 tcp 1000 ------- 1 1.0 3.1 4 103
r 0.58444 2 3 tcp 1000 ------- 0 0.0 3.0 42 65
+ 0.58444 3 2 ack 40 ------- 0 3.0 0.0 42 115
- 0.58444 3 2 ack 40 ------- 0 3.0 0.0 42 115
r 0.58684 3 2 ack 40 ------- 0 3.0 0.0 42 115
+ 0.58684 2 0 ack 40 ------- 0 3.0 0.0 42 115
- 0.58684 2 0 ack 40 ------- 0 3.0 0.0 42 115
r 0.58888 2 0 ack 40 ------- 0 3.0 0.0 42 115
+ 0.58888 0 2 tcp 1000 ------- 0 0.0 3.0 62 116
- 0.58888 0 2 tcp 1000 ------- 0 0.0 3.0 62 116