V -t * -v 1.0a5 -a 0
A -t * -n 1 -p 0 -o 0x7fffffff -c 30 -a 1
A -t * -h 1 -m 1073741823 -s 0
n -t * -a 0 -s 0 -S UP -v circle -c black -i black
n -t * -a 1 -s 1 -S UP -v circle -c black -i black
n -t * -a 2 -s 2 -S UP -v circle -c black -i black
n -t * -a 3 -s 3 -S UP -v circle -c black -i black
l -t * -s 0 -d 2 -S UP -r 8000000 -D 0.002 -c black
l -t * -s 1 -d 2 -S UP -r 8000000 -D 0.02 -c black
l -t * -s 2 -d 3 -S UP -r 800000 -D 0.002 -c black
+ -t 0.1 -s 0 -d 2 -p tcp -e 1000 -c 0 -i 0 -a 0 -x {0.0 3.0 0 ------- null}
- -t 0.1 -s 0 -d 2 -p tcp -e 1000 -c 0 -i 0 -a 0 -x {0.0 3.0 0 ------- null}
h -t 0.1 -s 0 -d 2 -p tcp -e 1000 -c 0 -i 0 -a 0 -x {0.0 3.0 -1 ------- null}
r -t 0.103 -s 0 -d 2 -p tcp -e 1000 -c 0 -i 0 -a 0 -x {0.0 3.0 0 ------- null}
+ -t 0.103 -s 2 -d 3 -p tcp -e 1000 -c 0 -i 0 -a 0 -x {0.0 3.0 0 ------- null}
- -t 0.103 -s 2 -d 3 -p tcp -e 1000 -c 0 -i 0 -a 0 -x {0.0 3.0 0 ------- null}
h -t 0.103 -s 2 -d 3 -p tcp -e 1000 -c 0 -i 0 -a 0 -x {0.0 3.0 -1 ------- null}
r -t 0.115 -s 2 -d 3 -p tcp -e 1000 -c 0 -i 0 -a 0 -x {0.0 3.0 0 ------- null}
+ -t 0.115 -s 3 -d 2 -p ack -e 40 -c 0 -i 1 -a 0 -x {3.0 0.0 0 ------- null}
- -t 0.115 -s 3 -d 2 -p ack -e 40 -c 0 -i 1 -a 0 -x {3.0 0.0 0 ------- null}
h -t 0.115 -s 3 -d 2 -p ack -e 40 -c 0 -i 1 -a 0 -x {3.0 0.0 -1 ------- null}
r -t 0.1174 -s 3 -d 2 -p ack -e 40 -c 0 -i 1 -a 0 -x {3.0 0.0 0 ------- null}
+ -t 0.1174 -s 2 -d 0 -p ack -e 40 -c 0 -i 1 -a 0 -x {3.0 0.0 0 ------- null}
- -t 0.1174 -s 2 -d 0 -p ack -e 40 -c 0 -i 1 -a 0 -x {3.0 0.0 0 ------- null}
h -t 0.1174 -s 2 -d 0 -p ack -e 40 -c 0 -i 1 -a 0 -x {3.0 0.0 -1 ------- null}
r -t 0.11944 -s 2 -d 0 -p ack -e 40 -c 0 -i 1 -a 0 -x {3.0 0.0 0 ------- null}
+ -t 0.11944 -s 0 -d 2 -p tcp -e 1000 -c 0 -i 2 -a 0 -x {0.0 3.0 1 ------- null}
- -t 0.11944 -s 0 -d 2 -p tcp -e 1000 -c 0 -i 2 -a 0 -x {0.0 3.0 1 ------- null}
h -t 0.11944 -s 0 -d 2 -p tcp -e 1000 -c 0 -i 2 -a 0 -x {0.0 3.0 -1 ------- null}
+ -t 0.11944 -s 0 -d 2 -p tcp -e 1000 -c 0 -i 3 -a 0 -x {0.0 3.0 2 ------- null}
- -t 0.12044 -s 0 -d 2 -p tcp -e 1000 -c 0 -i 3 -a 0 -x {0.0 3.0 2 ------- null}
h -t 0.12044 -s 0 -d 2 -p tcp -e 1000 -c 0 -i 3 -a 0 -x {0.0 3.0 -1 ------- null}
r -t 0.12244 -s 0 -d 2 -p tcp -e 1000 -c 0 -i 2 -a 0 -x {0.0 3.0 1 ------- null}
+ -t 0.12244 -s 2 -d 3 -p tcp -e 1000 -c 0 -i 2 -a 0 -x {0.0 3.0 1 ------- null}
- -t 0.12244 -s 2 -d 3 -p tcp -e 1000 -c 0 -i 2 -a 0 -x {0.0 3.0 1 ------- null}
h -t 0.12244 -s 2 -d 3 -p tcp -e 1000 -c 0 -i 2 -a 0 -x {0.0 3.0 -1 ------- null}
r -t 0.12344 -s 0 -d 2 -p tcp -e 1000 -c 0 -i 3 -a 0 -x {0.0 3.0 2 ------- null}
+ -t 0.12344 -s 2 -d 3 -p tcp -e 1000 -c 0 -i 3 -a 0 -x {0.0 3.0 2 ------- null}
- -t 0.13244 -s 2 -d 3 -p tcp -e 1000 -c 0 -i 3 -a 0 -x {0.0 3.0 2 ------- null}
h -t 0.13244 -s 2 -d 3 -p tcp -e 1000 -c 0 -i 3 -a 0 -x {0.0 3.0 -1 ------- null}
r -t 0.13444 -s 2 -d 3 -p tcp -e 1000 -c 0 -i 2 -a 0 -x {0.0 3.0 1 ------- null}
+ -t 0.13444 -s 3 -d 2 -p ack -e 40 -c 0 -i 4 -a 0 -x {3.0 0.0 1 ------- null}
- -t 0.13444 -s 3 -d 2 -p ack -e 40 -c 0 -i 4 -a 0 -x {3.0 0.0 1 ------- null}
h -t 0.13444 -s 3 -d 2 -p ack -e 40 -c 0 -i 4 -a 0 -x {3.0 0.0 -1 ------- null}
r -t 0.13684 -s 3 -d 2 -p ack -e 40 -c 0 -i 4 -a 0 -x {3.0 0.0 1 ------- null}
+ -t 0.13684 -s 2 -d 0 -p ack -e 40 -c 0 -i 4 -a 0 -x {3.0 0.0 1 ------- null}
- -t 0.13684 -s 2 -d 0 -p ack -e 40 -c 0 -i 4 -a 0 -x {3.0 0.0 1 ------- null}
h -t 0.13684 -s 2 -d 0 -p ack -e 40 -c 0 -i 4 -a 0 -x {3.0 0.0 -1 ------- null}
r -t 0.13888 -s 2 -d 0 -p ack -e 40 -c 0 -i 4 -a 0 -x {3.0 0.0 1 ------- null}
+ -t 0.13888 -s 0 -d 2 -p tcp -e 1000 -c 0 -i 5 -a 0 -x {0.0 3.0 3 ------- null}
- -t 0.13888 -s 0 -d 2 -p tcp -e 1000 -c 0 -i 5 -a 0 -x {0.0 3.0 3 ------- null}
h -t 0.13888 -s 0 -d 2 -p tcp -e 1000 -c 0 -i 5 -a 0 -x {0.0 3.0 -1 ------- null}
+ -t 0.13888 -s 0 -d 2 -p tcp -e 1000 -c 0 -i 6 -a 0 -x {0.0 3.0 4 ------- null}
- -t 0.13988 -s 0 -d 2 -p tcp -e 1000 -c 0 -i 6 -a 0 -x {0.0 3.0 4 ------- null}
h -t 0.13988 -s 0 -d 2 -p tcp -e 1000 -c 0 -i 6 -a 0 -x {0.0 3.0 -1 ------- null}
r -t 0.14188 -s 0 -d 2 -p tcp -e 1000 -c 0 -i 5 -a 0 -x {0.0 3.0 3 ------- null}
+ -t 0.14188 -s 2 -d 3 -p tcp -e 1000 -c 0 -i 5 -a 0 -x {0.0 3.0 3 ------- null}
- -t 0.14244 -s 2 -d 3 -p tcp -e 1000 -c 0 -i 5 -a 0 -x {0.0 3.0 3 ------- null}
h -t 0.14244 -s 2 -d 3 -p tcp -e 1000 -c 0 -i 5 -a 0 -x {0.0 3.0 -1 ------- null}
r -t 0.14288 -s 0 -d 2 -p tcp -e 1000 -c 0 -i 6 -a 0 -x {0.0 3.0 4 ------- null}
+ -t 0.14288 -s 2 -d 3 -p tcp -e 1000 -c 0 -i 6 -a 0 -x {0.0 3.0 4 ------- null}
r -t 0.14444 -s 2 -d 3 -p tcp -e 1000 -c 0 -i 3 -a 0 -x {0.0 3.0 2 ------- null}
+ -t 0.14444 -s 3 -d 2 -p ack -e 40 -c 0 -i 7 -a 0 -x {3.0 0.0 2 ------- null}
- -t 0.14444 -s 3 -d 2 -p ack -e 40 -c 0 -i 7 -a 0 -x {3.0 0.0 2 ------- null}
h -t 0.14444 -s 3 -d 2 -p ack -e 40 -c 0 -i 7 -a 0 -x {3.0 0.0 -1 ------- null}
r -t 0.14684 -s 3 -d 2 -p ack -e 40 -c 0 -i 7 -a 0 -x {3.0 0.0 2 ------- null}
+ -t 0.14684 -s 2 -d 0 -p ack -e 40 -c 0 -i 7 -a 0 -x {3.0 0.0 2 ------- null}
- -t 0.14684 -s 2 -d 0 -p ack -e 40 -c 0 -i 7 -a 0 -x {3.0 0.0 2 ------- null}
h -t 0.14684 -s 2 -d 0 -p ack -e 40 -c 0 -i 7 -a 0 -x {3.0 0.0 -1 ------- null}
r -t 0.14888 -s 2 -d 0 -p ack -e 40 -c 0 -i 7 -a 0 -x {3.0 0.0 2 ------- null}
+ -t 0.14888 -s 0 -d 2 -p tcp -e 1000 -c 0 -i 8 -a 0 -x {0.0 3.0 5 ------- null}
- -t 0.14888 -s 0 -d 2 -p tcp -e 1000 -c 0 -i 8 -a 0 -x {0.0 3.0 5 ------- null}
h -t 0.14888 -s 0 -d 2 -p tcp -e 1000 -c 0 -i 8 -a 0 -x {0.0 3.0 -1 ------- null}
+ -t 0.14888 -s 0 -d 2 -p tcp -e 1000 -c 0 -i 9 -a 0 -x {0.0 3.0 6 ------- null}
- -t 0.14988 -s 0 -d 2 -p tcp -e 1000 -c 0 -i 9 -a 0 -x {0.0 3.0 6 ------- null}
h -t 0.14988 -s 0 -d 2 -p tcp -e 1000 -c 0 -i 9 -a 0 -x {0.0 3.0 -1 ------- null}
r -t 0.15188 -s 0 -d 2 -p tcp -e 1000 -c 0 -i 8 -a 0 -x {0.0 3.0 5 ------- null}
+ -t 0.15188 -s 2 -d 3 -p tcp -e 1000 -c 0 -i 8 -a 0 -x {0.0 3.0 5 ------- null}
- -t 0.15244 -s 2 -d 3 -p tcp -e 1000 -c 0 -i 6 -a 0 -x {0.0 3.0 4 ------- null}
h -t 0.15244 -s 2 -d 3 -p tcp -e 1000 -c 0 -i 6 -a 0 -x {0.0 3.0 -1 ------- null}
r -t 0.15288 -s 0 -d 2 -p tcp -e 1000 -c 0 -i 9 -a 0 -x {0.0 3.0 6 ------- null}
+ -t 0.15288 -s 2 -d 3 -p tcp -e 1000 -c 0 -i 9 -a 0 -x {0.0 3.0 6 ------- null}
r -t 0.15444 -s 2 -d 3 -p tcp -e 1000 -c 0 -i 5 -a 0 -x {0.0 3.0 3 ------- null}
+ -t 0.15444 -s 3 -d 2 -p ack -e 40 -c 0 -i 10 -a 0 -x {3.0 0.0 3 ------- null}
- -t 0.15444 -s 3 -d 2 -p ack -e 40 -c 0 -i 10 -a 0 -x {3.0 0.0 3 ------- null}
h -t 0.15444 -s 3 -d 2 -p ack -e 40 -c 0 -i 10 -a 0 -x {3.0 0.0 -1 ------- null}
r -t 0.15684 -s 3 -d 2 -p ack -e 40 -c 0 -i 10 -a 0 -x {3.0 0.0 3 ------- null}
+ -t 0.15684 -s 2 -d 0 -p ack -e 40 -c 0 -i 10 -a 0 -x {3.0 0.0 3 ------- null}
- -t 0.15684 -s 2 -d 0 -p ack -e 40 -c 0 -i 10 -a 0 -x {3.0 0.0 3 ------- null}
h -t 0.15684 -s 2 -d 0 -p ack -e 40 -c 0 -i 10 -a 0 -x {3.0 0.0 -1 ------- null}
r -t 0.15888 -s 2 -d 0 -p ack -e 40 -c 0 -i 10 -a 0 -x {3.0 0.0 3 ------- null}
+ -t 0.15888 -s 0 -d 2 -p tcp -e 1000 -c 0 -i 11 -a 0 -x {0.0 3.0 7 ------- null}
- -t 0.15888 -s 0 -d 2 -p tcp -e 1000 -c 0 -i 11 -a 0 -x {0.0 3.0 7 ------- null}
h -t 0.15888 -s 0 -d 2 -p tcp -e 1000 -c 0 -i 11 -a 0 -x {0.0 3.0 -1 ------- null}
+ -t 0.15888 -s 0 -d 2 -p tcp -e 1000 -c 0 -i 12 -a 0 -x {0.0 3.0 8 ------- null}
- -t 0.15988 -s 0 -d 2 -p tcp -e 1000 -c 0 -i 12 -a 0 -x {0.0 3.0 8 ------- null}
h -t 0.15988 -s 0 -d 2 -p tcp -e 1000 -c 0 -i 12 -a 0 -x {0.0 3.0 -1 ------- null}
r -t 0.16188 -s 0 -d 2 -p tcp -e 1000 -c 0 -i 11 -a 0 -x {0.0 3.0 7 ------- null}
+ -t 0.16188 -s 2 -d 3 -p tcp -e 1000 -c 0 -i 11 -a 0 -x {0.0 3.0 7 ------- null}
- -t 0.16244 -s 2 -d 3 -p tcp -e 1000 -c 0 -i 8 -a 0 -x {0.0 3.0 5 ------- null}
h -t 0.16244 -s 2 -d 3 -p tcp -e 1000 -c 0 -i 8 -a 0 -x {0.0 3.0 -1 ------- null}
r -t 0.16288 -s 0 -d 2 -p tcp -e 1000 -c 0 -i 12 -a 0 -x {0.0 3.0 8 ------- null}
+ -t 0.16288 -s 2 -d 3 -p tcp -e 1000 -c 0 -i 12 -a 0 -x {0.0 3.0 8 ------- null}
r -t 0.16444 -s 2 -d 3 -p tcp -e 1000 -c 0 -i 6 -a 0 -x {0.0 3.0 4 ------- null}
+ -t 0.16444 -s 3 -d 2 -p ack -e 40 -c 0 -i 13 -a 0 -x {3.0 0.0 4 ------- null}
- -t 0.16444 -s 3 -d 2 -p ack -e 40 -c 0 -i 13 -a 0 -x {3.0 0.0 4 ------- null}
h -t 0.16444 -s 3 -d 2 -p ack -e 40 -c 0 -i 13 -a 0 -x {3.0 0.0 -1 ------- null}
r -t 0.16684 -s 3 -d 2 -p ack -e 40 -c 0 -i 13 -a 0 -x {3.0 0.0 4 ------- null}
+ -t 0.16684 -s 2 -d 0 -p ack -e 40 -c 0 -i 13 -a 0 -x {3.0 0.0 4 ------- null}
- -t 0.16684 -s 2 -d 0 -p ack -e 40 -c 0 -i 13 -a 0 -x {3.0 0.0 4 ------- null}
h -t 0.16684 -s 2 -d 0 -p ack -e 40 -c 0 -i 13 -a 0 -x {3.0 0.0 -1 ------- null}
r -t 0.16888 -s 2 -d 0 -p ack -e 40 -c 0 -i 13 -a 0 -x {3.0 0.0 4 ------- null}
+ -t 0.16888 -s 0 -d 2 -p tcp -e 1000 -c 0 -i 14 -a 0 -x {0.0 3.0 9 ------- null}
- -t 0.16888 -s 0 -d 2 -p tcp -e 1000 -c 0 -i 14 -a 0 -x {0.0 3.0 9 ------- null}
h -t 0.16888 -s 0 -d 2 -p tcp -e 1000 -c 0 -i 14 -a 0 -x {0.0 3.0 -1 ------- null}
+ -t 0.16888 -s 0 -d 2 -p tcp -e 1000 -c 0 -i 15 -a 0 -x {0.0 3.0 10 ------- null}
- -t 0.16988 -s 0 -d 2 -p tcp -e 1000 -c 0 -i 15 -a 0 -x {0.0 3.0 10 ------- null}
h -t 0.16988 -s 0 -d 2 -p tcp -e 1000 -c 0 -i 15 -a 0 -x {0.0 3.0 -1 ------- null}
r -t 0.17188 -s 0 -d 2 -p tcp -e 1000 -c 0 -i 14 -a 0 -x {0.0 3.0 9 ------- null}
+ -t 0.17188 -s 2 -d 3 -p tcp -e 1000 -c 0 -i 14 -a 0 -x {0.0 3.0 9 ------- null}
- -t 0.17244 -s 2 -d 3 -p tcp -e 1000 -c 0 -i 9 -a 0 -x {0.0 3.0 6 ------- null}
h -t 0.17244 -s 2 -d 3 -p tcp -e 1000 -c 0 -i 9 -a 0 -x {0.0 3.0 -1 ------- null}
r -t 0.17288 -s 0 -d 2 -p tcp -e 1000 -c 0 -i 15 -a 0 -x {0.0 3.0 10 ------- null}
+ -t 0.17288 -s 2 -d 3 -p tcp -e 1000 -c 0 -i 15 -a 0 -x {0.0 3.0 10 ------- null}
r -t 0.17444 -s 2 -d 3 -p tcp -e 1000 -c 0 -i 8 -a 0 -x {0.0 3.0 5 ------- null}
+ -t 0.17444 -s 3 -d 2 -p ack -e 40 -c 0 -i 16 -a 0 -x {3.0 0.0 5 ------- null}
- -t 0.17444 -s 3 -d 2 -p ack -e 40 -c 0 -i 16 -a 0 -x {3.0 0.0 5 ------- null}
h -t 0.17444 -s 3 -d 2 -p ack -e 40 -c 0 -i 16 -a 0 -x {3.0 0.0 -1 ------- null}
r -t 0.17684 -s 3 -d 2 -p ack -e 40 -c 0 -i 16 -a 0 -x {3.0 0.0 5 ------- null}
+ -t 0.17684 -s 2 -d 0 -p ack -e 40 -c 0 -i 16 -a 0 -x {3.0 0.0 5 ------- null}
- -t 0.17684 -s 2 -d 0 -p ack -e 40 -c 0 -i 16 -a 0 -x {3.0 0.0 5 ------- null}
h -t 0.17684 -s 2 -d 0 -p ack -e 40 -c 0 -i 16 -a 0 -x {3.0 0.0 -1 ------- null}
r -t 0.17888 -s 2 -d 0 -p ack -e 40 -c 0 -i 16 -a 0 -x {3.0 0.0 5 ------- null}
+ -t 0.17888 -s 0 -d 2 -p tcp -e 1000 -c 0 -i 17 -a 0 -x {0.0 3.0 11 ------- null}
- -t 0.17888 -s 0 -d 2 -p tcp -e 1000 -c 0 -i 17 -a 0 -x {0.0 3.0 11 ------- null}
h -t 0.17888 -s 0 -d 2 -p tcp -e 1000 -c 0 -i 17 -a 0 -x {0.0 3.0 -1 ------- null}
+ -t 0.17888 -s 0 -d 2 -p tcp -e 1000 -c 0 -i 18 -a 0 -x {0.0 3.0 12 ------- null}
- -t 0.17988 -s 0 -d 2 -p tcp -e 1000 -c 0 -i 18 -a 0 -x {0.0 3.0 12 ------- null}
h -t 0.17988 -s 0 -d 2 -p tcp -e 1000 -c 0 -i 18 -a 0 -x {0.0 3.0 -1 ------- null}
r -t 0.18188 -s 0 -d 2 -p tcp -e 1000 -c 0 -i 17 -a 0 -x {0.0 3.0 11 ------- null}
+ -t 0.18188 -s 2 -d 3 -p tcp -e 1000 -c 0 -i 17 -a 0 -x {0.0 3.0 11 ------- null}
- -t 0.18244 -s 2 -d 3 -p tcp -e 1000 -c 0 -i 11 -a 0 -x {0.0 3.0 7 ------- null}
h -t 0.18244 -s 2 -d 3 -p tcp -e 1000 -c 0 -i 11 -a 0 -x {0.0 3.0 -1 ------- null}
r -t 0.18288 -s 0 -d 2 -p tcp -e 1000 -c 0 -i 18 -a 0 -x {0.0 3.0 12 ------- null}
+ -t 0.18288 -s 2 -d 3 -p tcp -e 1000 -c 0 -i 18 -a 0 -x {0.0 3.0 12 ------- null}
r -t 0.18444 -s 2 -d 3 -p tcp -e 1000 -c 0 -i 9 -a 0 -x {0.0 3.0 6 ------- null}
+ -t 0.18444 -s 3 -d 2 -p ack -e 40 -c 0 -i 19 -a 0 -x {3.0 0.0 6 ------- null}
- -t 0.18444 -s 3 -d 2 -p ack -e 40 -c 0 -i 19 -a 0 -x {3.0 0.0 6 ------- null}
h -t 0.18444 -s 3 -d 2 -p ack -e 40 -c 0 -i 19 -a 0 -x {3.0 0.0 -1 ------- null}
r -t 0.18684 -s 3 -d 2 -p ack -e 40 -c 0 -i 19 -a 0 -x {3.0 0.0 6 ------- null}
+ -t 0.18684 -s 2 -d 0 -p ack -e 40 -c 0 -i 19 -a 0 -x {3.0 0.0 6 ------- null}
- -t 0.18684 -s 2 -d 0 -p ack -e 40 -c 0 -i 19 -a 0 -x {3.0 0.0 6 ------- null}
h -t 0.18684 -s 2 -d 0 -p ack -e 40 -c 0 -i 19 -a 0 -x {3.0 0.0 -1 ------- null}
r -t 0.18888 -s 2 -d 0 -p ack -e 40 -c 0 -i 19 -a 0 -x {3.0 0.0 6 ------- null}
+ -t 0.18888 -s 0 -d 2 -p tcp -e 1000 -c 0 -i 20 -a 0 -x {0.0 3.0 13 ------- null}
- -t 0.18888 -s 0 -d 2 -p tcp -e 1000 -c 0 -i 20 -a 0 -x {0.0 3.0 13 ------- null}
h -t 0.18888 -s 0 -d 2 -p tcp -e 1000 -c 0 -i 20 -a 0 -x {0.0 3.0 -1 ------- null}
+ -t 0.18888 -s 0 -d 2 -p tcp -e 1000 -c 0 -i 21 -a 0 -x {0.0 3.0 14 ------- null}
- -t 0.18988 -s 0 -d 2 -p tcp -e 1000 -c 0 -i 21 -a 0 -x {0.0 3.0 14 ------- null}
h -t 0.18988 -s 0 -d 2 -p tcp -e 1000 -c 0 -i 21 -a 0 -x {0.0 3.0 -1 ------- null}
r -t 0.19188 -s 0 -d 2 -p tcp -e 1000 -c 0 -i 20 -a 0 -x {0.0 3.0 13 ------- null}
+ -t 0.19188 -s 2 -d 3 -p tcp -e 1000 -c 0 -i 20 -a 0 -x {0.0 3.0 13 ------- null}
- -t 0.19244 -s 2 -d 3 -p tcp -e 1000 -c 0 -i 12 -a 0 -x {0.0 3.0 8 ------- null}
h -t 0.19244 -s 2 -d 3 -p tcp -e 1000 -c 0 -i 12 -a 0 -x {0.0 3.0 -1 ------- null}
r -t 0.19288 -s 0 -d 2 -p tcp -e 1000 -c 0 -i 21 -a 0 -x {0.0 3.0 14 ------- null}
+ -t 0.19288 -s 2 -d 3 -p tcp -e 1000 -c 0 -i 21 -a 0 -x {0.0 3.0 14 ------- null}
r -t 0.19444 -s 2 -d 3 -p tcp -e 1000 -c 0 -i 11 -a 0 -x {0.0 3.0 7 ------- null}
+ -t 0.19444 -s 3 -d 2 -p ack -e 40 -c 0 -i 22 -a 0 -x {3.0 0.0 7 ------- null}
- -t 0.19444 -s 3 -d 2 -p ack -e 40 -c 0 -i 22 -a 0 -x {3.0 0.0 7 ------- null}
h -t 0.19444 -s 3 -d 2 -p ack -e 40 -c 0 -i 22 -a 0 -x {3.0 0.0 -1 ------- null}
r -t 0.19684 -s 3 -d 2 -p ack -e 40 -c 0 -i 22 -a 0 -x {3.0 0.0 7 ------- null}
+ -t 0.19684 -s 2 -d 0 -p ack -e 40 -c 0 -i 22 -a 0 -x {3.0 0.0 7 ------- null}
- -t 0.19684 -s 2 -d 0 -p ack -e 40 -c 0 -i 22 -a 0 -x {3.0 0.0 7 ------- null}
h -t 0.19684 -s 2 -d 0 -p ack -e 40 -c 0 -i 22 -a 0 -x {3.0 0.0 -1 ------- null}
r -t 0.19888 -s 2 -d 0 -p ack -e 40 -c 0 -i 22 -a 0 -x {3.0 0.0 7 ------- null}
+ -t 0.19888 -s 0 -d 2 -p tcp -e 1000 -c 0 -i 23 -a 0 -x {0.0 3.0 15 ------- null}
- -t 0.19888 -s 0 -d 2 -p tcp -e 1000 -c 0 -i 23 -a 0 -x {0.0 3.0 15 ------- null}
h -t 0.19888 -s 0 -d 2 -p tcp -e 1000 -c 0 -i 23 -a 0 -x {0.0 3.0 -1 ------- null}
+ -t 0.19888 -s 0 -d 2 -p tcp -e 1000 -c 0 -i 24 -a 0 -x {0.0 3.0 16 ------- null}
- -t 0.19988 -s 0 -d 2 -p tcp -e 1000 -c 0 -i 24 -a 0 -x {0.0 3.0 16 ------- null}
h -t 0.19988 -s 0 -d 2 -p tcp -e 1000 -c 0 -i 24 -a 0 -x {0.0 3.0 -1 ------- null}
r -t 0.20188 -s 0 -d 2 -p tcp -e 1000 -c 0 -i 23 -a 0 -x {0.0 3.0 15 ------- null}
+ -t 0.20188 -s 2 -d 3 -p tcp -e 1000 -c 0 -i 23 -a 0 -x {0.0 3.0 15 ------- null}
- -t 0.20244 -s 2 -d 3 -p tcp -e 1000 -c 0 -i 14 -a 0 -x {0.0 3.0 9 ------- null}
h -t 0.20244 -s 2 -d 3 -p tcp -e 1000 -c 0 -i 14 -a 0 -x {0.0 3.0 -1 ------- null}
r -t 0.20288 -s 0 -d 2 -p tcp -e 1000 -c 0 -i 24 -a 0 -x {0.0 3.0 16 ------- null}
+ -t 0.20288 -s 2 -d 3 -p tcp -e 1000 -c 0 -i 24 -a 0 -x {0.0 3.0 16 ------- null}
r -t 0.20444 -s 2 -d 3 -p tcp -e 1000 -c 0 -i 12 -a 0 -x {0.0 3.0 8 ------- null}
+ -t 0.20444 -s 3 -d 2 -p ack -e 40 -c 0 -i 25 -a 0 -x {3.0 0.0 8 ------- null}
- -t 0.20444 -s 3 -d 2 -p ack -e 40 -c 0 -i 25 -a 0 -x {3.0 0.0 8 ------- null}
h -t 0.20444 -s 3 -d 2 -p ack -e 40 -c 0 -i 25 -a 0 -x {3.0 0.0 -1 ------- null}
r -t 0.20684 -s 3 -d 2 -p ack -e 40 -c 0 -i 25 -a 0 -x {3.0 0.0 8 ------- null}
+ -t 0.20684 -s 2 -d 0 -p ack -e 40 -c 0 -i 25 -a 0 -x {3.0 0.0 8 ------- null}
- -t 0.20684 -s 2 -d 0 -p ack -e 40 -c 0 -i 25 -a 0 -x {3.0 0.0 8 ------- null}
h -t 0.20684 -s 2 -d 0 -p ack -e 40 -c 0 -i 25 -a 0 -x {3.0 0.0 -1 ------- null}
r -t 0.20888 -s 2 -d 0 -p ack -e 40 -c 0 -i 25 -a 0 -x {3.0 0.0 8 ------- null}
+ -t 0.20888 -s 0 -d 2 -p tcp -e 1000 -c 0 -i 26 -a 0 -x {0.0 3.0 17 ------- null}
- -t 0.20888 -s 0 -d 2 -p tcp -e 1000 -c 0 -i 26 -a 0 -x {0.0 3.0 17 ------- null}
h -t 0.20888 -s 0 -d 2 -p tcp -e 1000 -c 0 -i 26 -a 0 -x {0.0 3.0 -1 ------- null}
+ -t 0.20888 -s 0 -d 2 -p tcp -e 1000 -c 0 -i 27 -a 0 -x {0.0 3.0 18 ------- null}
- -t 0.20988 -s 0 -d 2 -p tcp -e 1000 -c 0 -i 27 -a 0 -x {0.0 3.0 18 ------- null}
h -t 0.20988 -s 0 -d 2 -p tcp -e 1000 -c 0 -i 27 -a 0 -x {0.0 3.0 -1 ------- null}
r -t 0.21188 -s 0 -d 2 -p tcp -e 1000 -c 0 -i 26 -a 0 -x {0.0 3.0 17 ------- null}
+ -t 0.21188 -s 2 -d 3 -p tcp -e 1000 -c 0 -i 26 -a 0 -x {0.0 3.0 17 ------- null}
- -t 0.21244 -s 2 -d 3 -p tcp -e 1000 -c 0 -i 15 -a 0 -x {0.0 3.0 10 ------- null}
h -t 0.21244 -s 2 -d 3 -p tcp -e 1000 -c 0 -i 15 -a 0 -x {0.0 3.0 -1 ------- null}
r -t 0.21288 -s 0 -d 2 -p tcp -e 1000 -c 0 -i 27 -a 0 -x {0.0 3.0 18 ------- null}
+ -t 0.21288 -s 2 -d 3 -p tcp -e 1000 -c 0 -i 27 -a 0 -x {0.0 3.0 18 ------- null}
r -t 0.21444 -s 2 -d 3 -p tcp -e 1000 -c 0 -i 14 -a 0 -x {0.0 3.0 9 ------- null}
+ -t 0.21444 -s 3 -d 2 -p ack -e 40 -c 0 -i 28 -a 0 -x {3.0 0.0 9 ------- null}
- -t 0.21444 -s 3 -d 2 -p ack -e 40 -c 0 -i 28 -a 0 -x {3.0 0.0 9 ------- null}
h -t 0.21444 -s 3 -d 2 -p ack -e 40 -c 0 -i 28 -a 0 -x {3.0 0.0 -1 ------- null}
r -t 0.21684 -s 3 -d 2 -p ack -e 40 -c 0 -i 28 -a 0 -x {3.0 0.0 9 ------- null}
+ -t 0.21684 -s 2 -d 0 -p ack -e 40 -c 0 -i 28 -a 0 -x {3.0 0.0 9 ------- null}
- -t 0.21684 -s 2 -d 0 -p ack -e 40 -c 0 -i 28 -a 0 -x {3.0 0.0 9 ------- null}
h -t 0.21684 -s 2 -d 0 -p ack -e 40 -c 0 -i 28 -a 0 -x {3.0 0.0 -1 ------- null}
r -t 0.21888 -s 2 -d 0 -p ack -e 40 -c 0 -i 28 -a 0 -x {3.0 0.0 9 ------- null}
+ -t 0.21888 -s 0 -d 2 -p tcp -e 1000 -c 0 -i 29 -a 0 -x {0.0 3.0 19 ------- null}
- -t 0.21888 -s 0 -d 2 -p tcp -e 1000 -c 0 -i 29 -a 0 -x {0.0 3.0 19 ------- null}
h -t 0.21888 -s 0 -d 2 -p tcp -e 1000 -c 0 -i 29 -a 0 -x {0.0 3.0 -1 ------- null}
+ -t 0.21888 -s 0 -d 2 -p tcp -e 1000 -c 0 -i 30 -a 0 -x {0.0 3.0 20 ------- null}
- -t 0.21988 -s 0 -d 2 -p tcp -e 1000 -c 0 -i 30 -a 0 -x {0.0 3.0 20 ------- null}
h -t 0.21988 -s 0 -d 2 -p tcp -e 1000 -c 0 -i 30 -a 0 -x {0.0 3.0 -1 ------- null}
r -t 0.22188 -s 0 -d 2 -p tcp -e 1000 -c 0 -i 29 -a 0 -x {0.0 3.0 19 ------- null}
+ -t 0.22188 -s 2 -d 3 -p tcp -e 1000 -c 0 -i 29 -a 0 -x {0.0 3.0 19 ------- null}
- -t 0.22244 -s 2 -d 3 -p tcp -e 1000 -c 0 -i 17 -a 0 -x {0.0 3.0 11 ------- null}
h -t 0.22244 -s 2 -d 3 -p tcp -e 1000 -c 0 -i 17 -a 0 -x {0.0 3.0 -1 ------- null}
r -t 0.22288 -s 0 -d 2 -p tcp -e 1000 -c 0 -i 30 -a 0 -x {0.0 3.0 20 ------- null}
+ -t 0.22288 -s 2 -d 3 -p tcp -e 1000 -c 0 -i 30 -a 0 -x {0.0 3.0 20 ------- null}
r -t 0.22444 -s 2 -d 3 -p tcp -e 1000 -c 0 -i 15 -a 0 -x {0.0 3.0 10 ------- null}
+ -t 0.22444 -s 3 -d 2 -p ack -e 40 -c 0 -i 31 -a 0 -x {3.0 0.0 10 ------- null}
- -t 0.22444 -s 3 -d 2 -p ack -e 40 -c 0 -i 31 -a 0 -x {3.0 0.0 10 ------- null}
h -t 0.22444 -s 3 -d 2 -p ack -e 40 -c 0 -i 31 -a 0 -x {3.0 0.0 -1 ------- null}
r -t 0.22684 -s 3 -d 2 -p ack -e 40 -c 0 -i 31 -a 0 -x {3.0 0.0 10 ------- null}
+ -t 0.22684 -s 2 -d 0 -p ack -e 40 -c 0 -i 31 -a 0 -x {3.0 0.0 10 ------- null}
- -t 0.22684 -s 2 -d 0 -p ack -e 40 -c 0 -i 31 -a 0 -x {3.0 0.0 10 ------- null}
h -t 0.22684 -s 2 -d 0 -p ack -e 40 -c 0 -i 31 -a 0 -x {3.0 0.0 -1 ------- null}
r -t 0.22888 -s 2 -d 0 -p ack -e 40 -c 0 -i 31 -a 0 -x {3.0 0.0 10 ------- null}
+ -t 0.22888 -s 0 -d 2 -p tcp -e 1000 -c 0 -i 32 -a 0 -x {0.0 3.0 21 ------- null}
- -t 0.22888 -s 0 -d 2 -p tcp -e 1000 -c 0 -i 32 -a 0 -x {0.0 3.0 21 ------- null}
h -t 0.22888 -s 0 -d 2 -p tcp -e 1000 -c 0 -i 32 -a 0 -x {0.0 3.0 -1 ------- null}
+ -t 0.22888 -s 0 -d 2 -p tcp -e 1000 -c 0 -i 33 -a 0 -x {0.0 3.0 22 ------- null}
- -t 0.22988 -s 0 -d 2 -p tcp -e 1000 -c 0 -i 33 -a 0 -x {0.0 3.0 22 ------- null}
h -t 0.22988 -s 0 -d 2 -p tcp -e 1000 -c 0 -i 33 -a 0 -x {0.0 3.0 -1 ------- null}
r -t 0.23188 -s 0 -d 2 -p tcp -e 1000 -c 0 -i 32 -a 0 -x {0.0 3.0 21 ------- null}
+ -t 0.23188 -s 2 -d 3 -p tcp -e 1000 -c 0 -i 32 -a 0 -x {0.0 3.0 21 ------- null}
- -t 0.23244 -s 2 -d 3 -p tcp -e 1000 -c 0 -i 18 -a 0 -x {0.0 3.0 12 ------- null}
h -t 0.23244 -s 2 -d 3 -p tcp -e 1000 -c 0 -i 18 -a 0 -x {0.0 3.0 -1 ------- null}
r -t 0.23288 -s 0 -d 2 -p tcp -e 1000 -c 0 -i 33 -a 0 -x {0.0 3.0 22 ------- null}
+ -t 0.23288 -s 2 -d 3 -p tcp -e 1000 -c 0 -i 33 -a 0 -x {0.0 3.0 22 ------- null}
r -t 0.23444 -s 2 -d 3 -p tcp -e 1000 -c 0 -i 17 -a 0 -x {0.0 3.0 11 ------- null}
+ -t 0.23444 -s 3 -d 2 -p ack -e 40 -c 0 -i 34 -a 0 -x {3.0 0.0 11 ------- null}
- -t 0.23444 -s 3 -d 2 -p ack -e 40 -c 0 -i 34 -a 0 -x {3.0 0.0 11 ------- null}
h -t 0.23444 -s 3 -d 2 -p ack -e 40 -c 0 -i 34 -a 0 -x {3.0 0.0 -1 ------- null}
r -t 0.23684 -s 3 -d 2 -p ack -e 40 -c 0 -i 34 -a 0 -x {3.0 0.0 11 ------- null}
+ -t 0.23684 -s 2 -d 0 -p ack -e 40 -c 0 -i 34 -a 0 -x {3.0 0.0 11 ------- null}
- -t 0.23684 -s 2 -d 0 -p ack -e 40 -c 0 -i 34 -a 0 -x {3.0 0.0 11 ------- null}
h -t 0.23684 -s 2 -d 0 -p ack -e 40 -c 0 -i 34 -a 0 -x {3.0 0.0 -1 ------- null}
r -t 0.23888 -s 2 -d 0 -p ack -e 40 -c 0 -i 34 -a 0 -x {3.0 0.0 11 ------- null}
+ -t 0.23888 -s 0 -d 2 -p tcp -e 1000 -c 0 -i 35 -a 0 -x {0.0 3.0 23 ------- null}
- -t 0.23888 -s 0 -d 2 -p tcp -e 1000 -c 0 -i 35 -a 0 -x {0.0 3.0 23 ------- null}
h -t 0.23888 -s 0 -d 2 -p tcp -e 1000 -c 0 -i 35 -a 0 -x {0.0 3.0 -1 ------- null}
+ -t 0.23888 -s 0 -d 2 -p tcp -e 1000 -c 0 -i 36 -a 0 -x {0.0 3.0 24 ------- null}
- -t 0.23988 -s 0 -d 2 -p tcp -e 1000 -c 0 -i 36 -a 0 -x {0.0 3.0 24 ------- null}
h -t 0.23988 -s 0 -d 2 -p tcp -e 1000 -c 0 -i 36 -a 0 -x {0.0 3.0 -1 ------- null}
r -t 0.24188 -s 0 -d 2 -p tcp -e 1000 -c 0 -i 35 -a 0 -x {0.0 3.0 23 ------- null}
+ -t 0.24188 -s 2 -d 3 -p tcp -e 1000 -c 0 -i 35 -a 0 -x {0.0 3.0 23 ------- null}
- -t 0.24244 -s 2 -d 3 -p tcp -e 1000 -c 0 -i 20 -a 0 -x {0.0 3.0 13 ------- null}
h -t 0.24244 -s 2 -d 3 -p tcp -e 1000 -c 0 -i 20 -a 0 -x {0.0 3.0 -1 ------- null}
r -t 0.24288 -s 0 -d 2 -p tcp -e 1000 -c 0 -i 36 -a 0 -x {0.0 3.0 24 ------- null}
+ -t 0.24288 -s 2 -d 3 -p tcp -e 1000 -c 0 -i 36 -a 0 -x {0.0 3.0 24 ------- null}
r -t 0.24444 -s 2 -d 3 -p tcp -e 1000 -c 0 -i 18 -a 0 -x {0.0 3.0 12 ------- null}
+ -t 0.24444 -s 3 -d 2 -p ack -e 40 -c 0 -i 37 -a 0 -x {3.0 0.0 12 ------- null}
- -t 0.24444 -s 3 -d 2 -p ack -e 40 -c 0 -i 37 -a 0 -x {3.0 0.0 12 ------- null}
h -t 0.24444 -s 3 -d 2 -p ack -e 40 -c 0 -i 37 -a 0 -x {3.0 0.0 -1 ------- null}
r -t 0.24684 -s 3 -d 2 -p ack -e 40 -c 0 -i 37 -a 0 -x {3.0 0.0 12 ------- null}
+ -t 0.24684 -s 2 -d 0 -p ack -e 40 -c 0 -i 37 -a 0 -x {3.0 0.0 12 ------- null}
- -t 0.24684 -s 2 -d 0 -p ack -e 40 -c 0 -i 37 -a 0 -x {3.0 0.0 12 ------- null}
h -t 0.24684 -s 2 -d 0 -p ack -e 40 -c 0 -i 37 -a 0 -x {3.0 0.0 -1 ------- null}
r -t 0.24888 -s 2 -d 0 -p ack -e 40 -c 0 -i 37 -a 0 -x {3.0 0.0 12 ------- null}
+ -t 0.24888 -s 0 -d 2 -p tcp -e 1000 -c 0 -i 38 -a 0 -x {0.0 3.0 25 ------- null}
- -t 0.24888 -s 0 -d 2 -p tcp -e 1000 -c 0 -i 38 -a 0 -x {0.0 3.0 25 ------- null}
h -t 0.24888 -s 0 -d 2 -p tcp -e 1000 -c 0 -i 38 -a 0 -x {0.0 3.0 -1 ------- null}
+ -t 0.24888 -s 0 -d 2 -p tcp -e 1000 -c 0 -i 39 -a 0 -x {0.0 3.0 26 ------- null}
- -t 0.24988 -s 0 -d 2 -p tcp -e 1000 -c 0 -i 39 -a 0 -x {0.0 3.0 26 ------- null}
h -t 0.24988 -s 0 -d 2 -p tcp -e 1000 -c 0 -i 39 -a 0 -x {0.0 3.0 -1 ------- null}
r -t 0.25188 -s 0 -d 2 -p tcp -e 1000 -c 0 -i 38 -a 0 -x {0.0 3.0 25 ------- null}
+ -t 0.25188 -s 2 -d 3 -p tcp -e 1000 -c 0 -i 38 -a 0 -x {0.0 3.0 25 ------- null}
- -t 0.25244 -s 2 -d 3 -p tcp -e 1000 -c 0 -i 21 -a 0 -x {0.0 3.0 14 ------- null}
h -t 0.25244 -s 2 -d 3 -p tcp -e 1000 -c 0 -i 21 -a 0 -x {0.0 3.0 -1 ------- null}
r -t 0.25288 -s 0 -d 2 -p tcp -e 1000 -c 0 -i 39 -a 0 -x {0.0 3.0 26 ------- null}
+ -t 0.25288 -s 2 -d 3 -p tcp -e 1000 -c 0 -i 39 -a 0 -x {0.0 3.0 26 ------- null}
r -t 0.25444 -s 2 -d 3 -p tcp -e 1000 -c 0 -i 20 -a 0 -x {0.0 3.0 13 ------- null}
+ -t 0.25444 -s 3 -d 2 -p ack -e 40 -c 0 -i 40 -a 0 -x {3.0 0.0 13 ------- null}
- -t 0.25444 -s 3 -d 2 -p ack -e 40 -c 0 -i 40 -a 0 -x {3.0 0.0 13 ------- null}
h -t 0.25444 -s 3 -d 2 -p ack -e 40 -c 0 -i 40 -a 0 -x {3.0 0.0 -1 ------- null}
r -t 0.25684 -s 3 -d 2 -p ack -e 40 -c 0 -i 40 -a 0 -x {3.0 0.0 13 ------- null}
+ -t 0.25684 -s 2 -d 0 -p ack -e 40 -c 0 -i 40 -a 0 -x {3.0 0.0 13 ------- null}
- -t 0.25684 -s 2 -d 0 -p ack -e 40 -c 0 -i 40 -a 0 -x {3.0 0.0 13 ------- null}
h -t 0.25684 -s 2 -d 0 -p ack -e 40 -c 0 -i 40 -a 0 -x {3.0 0.0 -1 ------- null}
r -t 0.25888 -s 2 -d 0 -p ack -e 40 -c 0 -i 40 -a 0 -x {3.0 0.0 13 ------- null}
+ -t 0.25888 -s 0 -d 2 -p tcp -e 1000 -c 0 -i 41 -a 0 -x {0.0 3.0 27 ------- null}
- -t 0.25888 -s 0 -d 2 -p tcp -e 1000 -c 0 -i 41 -a 0 -x {0.0 3.0 27 ------- null}
h -t 0.25888 -s 0 -d 2 -p tcp -e 1000 -c 0 -i 41 -a 0 -x {0.0 3.0 -1 ------- null}
+ -t 0.25888 -s 0 -d 2 -p tcp -e 1000 -c 0 -i 42 -a 0 -x {0.0 3.0 28 ------- null}
- -t 0.25988 -s 0 -d 2 -p tcp -e 1000 -c 0 -i 42 -a 0 -x {0.0 3.0 28 ------- null}
h -t 0.25988 -s 0 -d 2 -p tcp -e 1000 -c 0 -i 42 -a 0 -x {0.0 3.0 -1 ------- null}
r -t 0.26188 -s 0 -d 2 -p tcp -e 1000 -c 0 -i 41 -a 0 -x {0.0 3.0 27 ------- null}
+ -t 0.26188 -s 2 -d 3 -p tcp -e 1000 -c 0 -i 41 -a 0 -x {0.0 3.0 27 ------- null}
- -t 0.26244 -s 2 -d 3 -p tcp -e 1000 -c 0 -i 23 -a 0 -x {0.0 3.0 15 ------- null}
h -t 0.26244 -s 2 -d 3 -p tcp -e 1000 -c 0 -i 23 -a 0 -x {0.0 3.0 -1 ------- null}
r -t 0.26288 -s 0 -d 2 -p tcp -e 1000 -c 0 -i 42 -a 0 -x {0.0 3.0 28 ------- null}
+ -t 0.26288 -s 2 -d 3 -p tcp -e 1000 -c 0 -i 42 -a 0 -x {0.0 3.0 28 ------- null}
r -t 0.26444 -s 2 -d 3 -p tcp -e 1000 -c 0 -i 21 -a 0 -x {0.0 3.0 14 ------- null}
+ -t 0.26444 -s 3 -d 2 -p ack -e 40 -c 0 -i 43 -a 0 -x {3.0 0.0 14 ------- null}
- -t 0.26444 -s 3 -d 2 -p ack -e 40 -c 0 -i 43 -a 0 -x {3.0 0.0 14 ------- null}
h -t 0.26444 -s 3 -d 2 -p ack -e 40 -c 0 -i 43 -a 0 -x {3.0 0.0 -1 ------- null}
r -t 0.26684 -s 3 -d 2 -p ack -e 40 -c 0 -i 43 -a 0 -x {3.0 0.0 14 ------- null}
+ -t 0.26684 -s 2 -d 0 -p ack -e 40 -c 0 -i 43 -a 0 -x {3.0 0.0 14 ------- null}
- -t 0.26684 -s 2 -d 0 -p ack -e 40 -c 0 -i 43 -a 0 -x {3.0 0.0 14 ------- null}
h -t 0.26684 -s 2 -d 0 -p ack -e 40 -c 0 -i 43 -a 0 -x {3.0 0.0 -1 ------- null}
r -t 0.26888 -s 2 -d 0 -p ack -e 40 -c 0 -i 43 -a 0 -x {3.0 0.0 14 ------- null}
+ -t 0.26888 -s 0 -d 2 -p tcp -e 1000 -c 0 -i 44 -a 0 -x {0.0 3.0 29 ------- null}
- -t 0.26888 -s 0 -d 2 -p tcp -e 1000 -c 0 -i 44 -a 0 -x {0.0 3.0 29 ------- null}
h -t 0.26888 -s 0 -d 2 -p tcp -e 1000 -c 0 -i 44 -a 0 -x {0.0 3.0 -1 ------- null}
+ -t 0.26888 -s 0 -d 2 -p tcp -e 1000 -c 0 -i 45 -a 0 -x {0.0 3.0 30 ------- null}
- -t 0.26988 -s 0 -d 2 -p tcp -e 1000 -c 0 -i 45 -a 0 -x {0.0 3.0 30 ------- null}
h -t 0.26988 -s 0 -d 2 -p tcp -e 1000 -c 0 -i 45 -a 0 -x {0.0 3.0 -1 ------- null}
r -t 0.27188 -s 0 -d 2 -p tcp -e 1000 -c 0 -i 44 -a 0 -x {0.0 3.0 29 ------- null}
+ -t 0.27188 -s 2 -d 3 -p tcp -e 1000 -c 0 -i 44 -a 0 -x {0.0 3.0 29 ------- null}
- -t 0.27244 -s 2 -d 3 -p tcp -e 1000 -c 0 -i 24 -a 0 -x {0.0 3.0 16 ------- null}
h -t 0.27244 -s 2 -d 3 -p tcp -e 1000 -c 0 -i 24 -a 0 -x {0.0 3.0 -1 ------- null}
r -t 0.27288 -s 0 -d 2 -p tcp -e 1000 -c 0 -i 45 -a 0 -x {0.0 3.0 30 ------- null}
+ -t 0.27288 -s 2 -d 3 -p tcp -e 1000 -c 0 -i 45 -a 0 -x {0.0 3.0 30 ------- null}
r -t 0.27444 -s 2 -d 3 -p tcp -e 1000 -c 0 -i 23 -a 0 -x {0.0 3.0 15 ------- null}
+ -t 0.27444 -s 3 -d 2 -p ack -e 40 -c 0 -i 46 -a 0 -x {3.0 0.0 15 ------- null}
- -t 0.27444 -s 3 -d 2 -p ack -e 40 -c 0 -i 46 -a 0 -x {3.0 0.0 15 ------- null}
h -t 0.27444 -s 3 -d 2 -p ack -e 40 -c 0 -i 46 -a 0 -x {3.0 0.0 -1 ------- null}
r -t 0.27684 -s 3 -d 2 -p ack -e 40 -c 0 -i 46 -a 0 -x {3.0 0.0 15 ------- null}
+ -t 0.27684 -s 2 -d 0 -p ack -e 40 -c 0 -i 46 -a 0 -x {3.0 0.0 15 ------- null}
- -t 0.27684 -s 2 -d 0 -p ack -e 40 -c 0 -i 46 -a 0 -x {3.0 0.0 15 ------- null}
h -t 0.27684 -s 2 -d 0 -p ack -e 40 -c 0 -i 46 -a 0 -x {3.0 0.0 -1 ------- null}
r -t 0.27888 -s 2 -d 0 -p ack -e 40 -c 0 -i 46 -a 0 -x {3.0 0.0 15 ------- null}
+ -t 0.27888 -s 0 -d 2 -p tcp -e 1000 -c 0 -i 47 -a 0 -x {0.0 3.0 31 ------- null}
- -t 0.27888 -s 0 -d 2 -p tcp -e 1000 -c 0 -i 47 -a 0 -x {0.0 3.0 31 ------- null}
h -t 0.27888 -s 0 -d 2 -p tcp -e 1000 -c 0 -i 47 -a 0 -x {0.0 3.0 -1 ------- null}
+ -t 0.27888 -s 0 -d 2 -p tcp -e 1000 -c 0 -i 48 -a 0 -x {0.0 3.0 32 ------- null}
- -t 0.27988 -s 0 -d 2 -p tcp -e 1000 -c 0 -i 48 -a 0 -x {0.0 3.0 32 ------- null}
h -t 0.27988 -s 0 -d 2 -p tcp -e 1000 -c 0 -i 48 -a 0 -x {0.0 3.0 -1 ------- null}
r -t 0.28188 -s 0 -d 2 -p tcp -e 1000 -c 0 -i 47 -a 0 -x {0.0 3.0 31 ------- null}
+ -t 0.28188 -s 2 -d 3 -p tcp -e 1000 -c 0 -i 47 -a 0 -x {0.0 3.0 31 ------- null}
- -t 0.28244 -s 2 -d 3 -p tcp -e 1000 -c 0 -i 26 -a 0 -x {0.0 3.0 17 ------- null}
h -t 0.28244 -s 2 -d 3 -p tcp -e 1000 -c 0 -i 26 -a 0 -x {0.0 3.0 -1 ------- null}
r -t 0.28288 -s 0 -d 2 -p tcp -e 1000 -c 0 -i 48 -a 0 -x {0.0 3.0 32 ------- null}
+ -t 0.28288 -s 2 -d 3 -p tcp -e 1000 -c 0 -i 48 -a 0 -x {0.0 3.0 32 ------- null}
r -t 0.28444 -s 2 -d 3 -p tcp -e 1000 -c 0 -i 24 -a 0 -x {0.0 3.0 16 ------- null}
+ -t 0.28444 -s 3 -d 2 -p ack -e 40 -c 0 -i 49 -a 0 -x {3.0 0.0 16 ------- null}
- -t 0.28444 -s 3 -d 2 -p ack -e 40 -c 0 -i 49 -a 0 -x {3.0 0.0 16 ------- null}
h -t 0.28444 -s 3 -d 2 -p ack -e 40 -c 0 -i 49 -a 0 -x {3.0 0.0 -1 ------- null}
r -t 0.28684 -s 3 -d 2 -p ack -e 40 -c 0 -i 49 -a 0 -x {3.0 0.0 16 ------- null}
+ -t 0.28684 -s 2 -d 0 -p ack -e 40 -c 0 -i 49 -a 0 -x {3.0 0.0 16 ------- null}
- -t 0.28684 -s 2 -d 0 -p ack -e 40 -c 0 -i 49 -a 0 -x {3.0 0.0 16 ------- null}
h -t 0.28684 -s 2 -d 0 -p ack -e 40 -c 0 -i 49 -a 0 -x {3.0 0.0 -1 ------- null}
r -t 0.28888 -s 2 -d 0 -p ack -e 40 -c 0 -i 49 -a 0 -x {3.0 0.0 16 ------- null}
+ -t 0.28888 -s 0 -d 2 -p tcp -e 1000 -c 0 -i 50 -a 0 -x {0.0 3.0 33 ------- null}
- -t 0.28888 -s 0 -d 2 -p tcp -e 1000 -c 0 -i 50 -a 0 -x {0.0 3.0 33 ------- null}
h -t 0.28888 -s 0 -d 2 -p tcp -e 1000 -c 0 -i 50 -a 0 -x {0.0 3.0 -1 ------- null}
+ -t 0.28888 -s 0 -d 2 -p tcp -e 1000 -c 0 -i 51 -a 0 -x {0.0 3.0 34 ------- null}
- -t 0.28988 -s 0 -d 2 -p tcp -e 1000 -c 0 -i 51 -a 0 -x {0.0 3.0 34 ------- null}
h -t 0.28988 -s 0 -d 2 -p tcp -e 1000 -c 0 -i 51 -a 0 -x {0.0 3.0 -1 ------- null}
r -t 0.29188 -s 0 -d 2 -p tcp -e 1000 -c 0 -i 50 -a 0 -x {0.0 3.0 33 ------- null}
+ -t 0.29188 -s 2 -d 3 -p tcp -e 1000 -c 0 -i 50 -a 0 -x {0.0 3.0 33 ------- null}