s 0.029365548 _1_ MAC  --- 0 message 90 [0 ffffffff 1 800] ------- [1:255 -1:255 32 0] 
s 1.120361192 _0_ MAC  --- 1 message 90 [0 ffffffff 0 800] ------- [0:255 -1:255 32 0] 
M 10.00000 0 (5.00, 2.00, 0.00), (20.00, 18.00), 1.00
s 12.941787739 _1_ MAC  --- 3 message 90 [0 ffffffff 1 800] ------- [1:255 -1:255 32 0] 
s 13.242891084 _0_ MAC  --- 5 message 90 [0 ffffffff 0 800] ------- [0:255 -1:255 32 0] 
s 24.799571167 _1_ MAC  --- 7 message 90 [0 ffffffff 1 800] ------- [1:255 -1:255 32 0] 
s 27.720098723 _0_ MAC  --- 8 message 90 [0 ffffffff 0 800] ------- [0:255 -1:255 32 0] 
s 39.083947528 _1_ MAC  --- 10 message 90 [0 ffffffff 1 800] ------- [1:255 -1:255 32 0] 
s 40.919375913 _0_ MAC  --- 11 message 90 [0 ffffffff 0 800] ------- [0:255 -1:255 32 0] 
M 50.00000 1 (390.00, 385.00, 0.00), (25.00, 20.00), 15.00
s 53.478386556 _1_ MAC  --- 12 message 90 [0 ffffffff 1 800] ------- [1:255 -1:255 32 0] 
s 54.709637820 _0_ MAC  --- 13 message 90 [0 ffffffff 0 800] ------- [0:255 -1:255 32 0] 
s 65.134549662 _1_ MAC  --- 15 message 90 [0 ffffffff 1 800] ------- [1:255 -1:255 32 0] 
s 69.500567994 _0_ MAC  --- 16 message 90 [0 ffffffff 0 800] ------- [0:255 -1:255 32 0] 
r 69.501288756 _1_ MAC  --- 16 message 32 [0 ffffffff 0 800] ------- [0:255 -1:255 32 0] 
s 76.429925123 _1_ MAC  --- 17 message 90 [0 ffffffff 1 800] ------- [1:255 -1:255 32 0] 
r 76.430645539 _0_ MAC  --- 17 message 32 [0 ffffffff 1 800] ------- [1:255 -1:255 32 0] 
D 76.430670539 _0_ IFQ  ARP 2 tcp 80 [0 0 0 800] ------- [0:0 1:0 32 1] [0 0] 0 0
D 76.430670539 _0_ IFQ  ARP 4 tcp 80 [0 0 0 800] ------- [0:0 1:0 32 1] [0 0] 0 0
D 76.430670539 _0_ RTR  CBK 6 tcp 80 [0 0 0 800] ------- [0:0 1:0 32 1] [0 0] 0 0
D 76.430670539 _0_ RTR  CBK 9 tcp 80 [0 0 0 800] ------- [0:0 1:0 32 1] [0 0] 0 0
s 76.430945539 _0_ MAC  --- 0 ARP 86 [0 ffffffff 0 806] ------- [REQUEST 0/0 0/1]
r 76.431633955 _1_ MAC  --- 0 ARP 28 [0 ffffffff 0 806] ------- [REQUEST 0/0 0/1]
s 76.431763539 _0_ MAC  --- 0 ARP 86 [0 ffffffff 0 806] ------- [REQUEST 0/0 0/1]
r 76.432451955 _1_ MAC  --- 0 ARP 28 [0 ffffffff 0 806] ------- [REQUEST 0/0 0/1]
s 76.432501539 _0_ MAC  --- 0 ARP 86 [0 ffffffff 0 806] ------- [REQUEST 0/0 0/1]
r 76.433189955 _1_ MAC  --- 0 ARP 28 [0 ffffffff 0 806] ------- [REQUEST 0/0 0/1]
s 76.433479539 _0_ MAC  --- 0 ARP 86 [0 ffffffff 0 806] ------- [REQUEST 0/0 0/1]
r 76.434167955 _1_ MAC  --- 0 ARP 28 [0 ffffffff 0 806] ------- [REQUEST 0/0 0/1]
s 76.434237955 _1_ MAC  --- 0 RTS 44 [52e 0 1 0] 
r 76.434590370 _0_ MAC  --- 0 RTS 44 [52e 0 1 0] 
s 76.434600370 _0_ MAC  --- 0 CTS 38 [3f4 1 0 0] 
r 76.434904786 _1_ MAC  --- 0 CTS 38 [3f4 1 0 0] 
s 76.434914786 _1_ MAC  --- 0 ARP 86 [13a 0 1 806] ------- [REPLY 1/1 0/0]
r 76.435603201 _0_ MAC  --- 0 ARP 28 [13a 0 1 806] ------- [REPLY 1/1 0/0]
s 76.435613201 _0_ MAC  --- 0 ACK 38 [0 1 0 0] 
r 76.435917616 _1_ MAC  --- 0 ACK 38 [0 1 0 0] 
s 76.436247201 _0_ MAC  --- 0 RTS 44 [6ce 1 0 0] 
r 76.436599616 _1_ MAC  --- 0 RTS 44 [6ce 1 0 0] 
s 76.436609616 _1_ MAC  --- 0 CTS 38 [594 0 0 0] 
r 76.436914032 _0_ MAC  --- 0 CTS 38 [594 0 0 0] 
s 76.436924032 _0_ MAC  --- 14 tcp 138 [13a 1 0 800] ------- [0:0 1:0 32 1] [0 0] 0 0
r 76.438028447 _1_ MAC  --- 14 tcp 80 [13a 1 0 800] ------- [0:0 1:0 32 1] [0 0] 1 0
s 76.438038447 _1_ MAC  --- 0 ACK 38 [0 0 0 0] 
r 76.438342862 _0_ MAC  --- 0 ACK 38 [0 0 0 0] 
s 76.438412447 _1_ MAC  --- 0 RTS 44 [52e 0 1 0] 
r 76.438764862 _0_ MAC  --- 0 RTS 44 [52e 0 1 0] 
s 76.438774862 _0_ MAC  --- 0 CTS 38 [3f4 1 0 0] 
r 76.439079278 _1_ MAC  --- 0 CTS 38 [3f4 1 0 0] 
s 76.439089278 _1_ MAC  --- 0 ARP 86 [13a 0 1 806] ------- [REPLY 1/1 0/0]
r 76.439777693 _0_ MAC  --- 0 ARP 28 [13a 0 1 806] ------- [REPLY 1/1 0/0]
s 76.439787693 _0_ MAC  --- 0 ACK 38 [0 1 0 0] 
r 76.440092108 _1_ MAC  --- 0 ACK 38 [0 1 0 0] 
s 76.440622108 _1_ MAC  --- 0 RTS 44 [52e 0 1 0] 
r 76.440974523 _0_ MAC  --- 0 RTS 44 [52e 0 1 0] 
s 76.440984523 _0_ MAC  --- 0 CTS 38 [3f4 1 0 0] 
r 76.441288938 _1_ MAC  --- 0 CTS 38 [3f4 1 0 0] 
s 76.441298938 _1_ MAC  --- 0 ARP 86 [13a 0 1 806] ------- [REPLY 1/1 0/0]
r 76.441987353 _0_ MAC  --- 0 ARP 28 [13a 0 1 806] ------- [REPLY 1/1 0/0]
s 76.441997353 _0_ MAC  --- 0 ACK 38 [0 1 0 0] 
r 76.442301769 _1_ MAC  --- 0 ACK 38 [0 1 0 0] 
s 76.442591769 _1_ MAC  --- 0 RTS 44 [52e 0 1 0] 
r 76.442944184 _0_ MAC  --- 0 RTS 44 [52e 0 1 0] 
s 76.442954184 _0_ MAC  --- 0 CTS 38 [3f4 1 0 0] 
r 76.443258599 _1_ MAC  --- 0 CTS 38 [3f4 1 0 0] 
s 76.443268599 _1_ MAC  --- 0 ARP 86 [13a 0 1 806] ------- [REPLY 1/1 0/0]
r 76.443957014 _0_ MAC  --- 0 ARP 28 [13a 0 1 806] ------- [REPLY 1/1 0/0]
s 76.443967014 _0_ MAC  --- 0 ACK 38 [0 1 0 0] 
r 76.444271429 _1_ MAC  --- 0 ACK 38 [0 1 0 0] 
s 76.444441429 _1_ MAC  --- 0 RTS 44 [62e 0 1 0] 
r 76.444793844 _0_ MAC  --- 0 RTS 44 [62e 0 1 0] 
s 76.444803844 _0_ MAC  --- 0 CTS 38 [4f4 1 0 0] 
r 76.445108259 _1_ MAC  --- 0 CTS 38 [4f4 1 0 0] 
s 76.445118259 _1_ MAC  --- 18 ack 118 [13a 0 1 800] ------- [1:0 0:0 32 0] [0 0] 0 0
r 76.446062674 _0_ MAC  --- 18 ack 60 [13a 0 1 800] ------- [1:0 0:0 32 0] [0 0] 1 0
s 76.446072674 _0_ MAC  --- 0 ACK 38 [0 1 0 0] 
r 76.446377088 _1_ MAC  --- 0 ACK 38 [0 1 0 0] 
s 76.446726674 _0_ MAC  --- 0 RTS 44 [256e 1 0 0] 
r 76.447079088 _1_ MAC  --- 0 RTS 44 [256e 1 0 0] 
s 76.447089088 _1_ MAC  --- 0 CTS 38 [2434 0 0 0] 
r 76.447393503 _0_ MAC  --- 0 CTS 38 [2434 0 0 0] 
s 76.447403503 _0_ MAC  --- 19 tcp 1118 [13a 1 0 800] ------- [0:0 1:0 32 1] [1 0] 0 0
r 76.456347918 _1_ MAC  --- 19 tcp 1060 [13a 1 0 800] ------- [0:0 1:0 32 1] [1 0] 1 0
s 76.456357918 _1_ MAC  --- 0 ACK 38 [0 0 0 0] 
r 76.456662332 _0_ MAC  --- 0 ACK 38 [0 0 0 0] 
s 76.457171918 _1_ MAC  --- 0 RTS 44 [62e 0 1 0] 
r 76.457524332 _0_ MAC  --- 0 RTS 44 [62e 0 1 0] 
s 76.457534332 _0_ MAC  --- 0 CTS 38 [4f4 1 0 0] 
r 76.457838747 _1_ MAC  --- 0 CTS 38 [4f4 1 0 0] 
s 76.457848747 _1_ MAC  --- 20 ack 118 [13a 0 1 800] ------- [1:0 0:0 32 0] [1 0] 0 0
r 76.458793161 _0_ MAC  --- 20 ack 60 [13a 0 1 800] ------- [1:0 0:0 32 0] [1 0] 1 0
s 76.458803161 _0_ MAC  --- 0 ACK 38 [0 1 0 0] 
r 76.459107575 _1_ MAC  --- 0 ACK 38 [0 1 0 0] 
s 76.459357161 _0_ MAC  --- 0 RTS 44 [256e 1 0 0] 
r 76.459709575 _1_ MAC  --- 0 RTS 44 [256e 1 0 0] 
s 76.459719575 _1_ MAC  --- 0 CTS 38 [2434 0 0 0] 
r 76.460023989 _0_ MAC  --- 0 CTS 38 [2434 0 0 0] 
s 76.460033989 _0_ MAC  --- 21 tcp 1118 [13a 1 0 800] ------- [0:0 1:0 32 1] [2 0] 0 0
r 76.468978404 _1_ MAC  --- 21 tcp 1060 [13a 1 0 800] ------- [0:0 1:0 32 1] [2 0] 1 0
s 76.468988404 _1_ MAC  --- 0 ACK 38 [0 0 0 0] 
r 76.469292817 _0_ MAC  --- 0 ACK 38 [0 0 0 0] 
s 76.469422404 _1_ MAC  --- 0 RTS 44 [62e 0 1 0] 
r 76.469774817 _0_ MAC  --- 0 RTS 44 [62e 0 1 0] 
s 76.469784817 _0_ MAC  --- 0 CTS 38 [4f4 1 0 0] 
r 76.470089231 _1_ MAC  --- 0 CTS 38 [4f4 1 0 0] 
s 76.470099231 _1_ MAC  --- 23 ack 118 [13a 0 1 800] ------- [1:0 0:0 32 0] [2 0] 0 0
r 76.471043645 _0_ MAC  --- 23 ack 60 [13a 0 1 800] ------- [1:0 0:0 32 0] [2 0] 1 0
s 76.471053645 _0_ MAC  --- 0 ACK 38 [0 1 0 0] 
r 76.471358058 _1_ MAC  --- 0 ACK 38 [0 1 0 0] 
s 76.471607645 _0_ MAC  --- 0 RTS 44 [256e 1 0 0] 
r 76.471960058 _1_ MAC  --- 0 RTS 44 [256e 1 0 0] 
s 76.471970058 _1_ MAC  --- 0 CTS 38 [2434 0 0 0] 
r 76.472274472 _0_ MAC  --- 0 CTS 38 [2434 0 0 0] 
s 76.472284472 _0_ MAC  --- 22 tcp 1118 [13a 1 0 800] ------- [0:0 1:0 32 1] [3 0] 0 0
r 76.481228885 _1_ MAC  --- 22 tcp 1060 [13a 1 0 800] ------- [0:0 1:0 32 1] [3 0] 1 0
s 76.481238885 _1_ MAC  --- 0 ACK 38 [0 0 0 0] 
r 76.481543299 _0_ MAC  --- 0 ACK 38 [0 0 0 0] 
s 76.481612885 _1_ MAC  --- 0 RTS 44 [62e 0 1 0] 
r 76.481965299 _0_ MAC  --- 0 RTS 44 [62e 0 1 0] 
s 76.481975299 _0_ MAC  --- 0 CTS 38 [4f4 1 0 0] 
r 76.482279712 _1_ MAC  --- 0 CTS 38 [4f4 1 0 0] 
s 76.482289712 _1_ MAC  --- 25 ack 118 [13a 0 1 800] ------- [1:0 0:0 32 0] [3 0] 0 0
r 76.483234125 _0_ MAC  --- 25 ack 60 [13a 0 1 800] ------- [1:0 0:0 32 0] [3 0] 1 0
s 76.483244125 _0_ MAC  --- 0 ACK 38 [0 1 0 0] 
r 76.483548538 _1_ MAC  --- 0 ACK 38 [0 1 0 0] 
s 76.483658125 _0_ MAC  --- 0 RTS 44 [256e 1 0 0] 
r 76.484010538 _1_ MAC  --- 0 RTS 44 [256e 1 0 0] 
s 76.484020538 _1_ MAC  --- 0 CTS 38 [2434 0 0 0] 
r 76.484324951 _0_ MAC  --- 0 CTS 38 [2434 0 0 0] 
s 76.484334951 _0_ MAC  --- 24 tcp 1118 [13a 1 0 800] ------- [0:0 1:0 32 1] [4 0] 0 0
r 76.493279364 _1_ MAC  --- 24 tcp 1060 [13a 1 0 800] ------- [0:0 1:0 32 1] [4 0] 1 0
s 76.493289364 _1_ MAC  --- 0 ACK 38 [0 0 0 0] 
r 76.493593776 _0_ MAC  --- 0 ACK 38 [0 0 0 0] 
s 76.493943364 _1_ MAC  --- 0 RTS 44 [62e 0 1 0] 
r 76.494295776 _0_ MAC  --- 0 RTS 44 [62e 0 1 0] 
s 76.494305776 _0_ MAC  --- 0 CTS 38 [4f4 1 0 0] 
r 76.494610189 _1_ MAC  --- 0 CTS 38 [4f4 1 0 0] 
s 76.494620189 _1_ MAC  --- 27 ack 118 [13a 0 1 800] ------- [1:0 0:0 32 0] [4 0] 0 0
r 76.495564601 _0_ MAC  --- 27 ack 60 [13a 0 1 800] ------- [1:0 0:0 32 0] [4 0] 1 0
s 76.495574601 _0_ MAC  --- 0 ACK 38 [0 1 0 0] 
r 76.495879013 _1_ MAC  --- 0 ACK 38 [0 1 0 0] 
s 76.496248601 _0_ MAC  --- 0 RTS 44 [256e 1 0 0] 
r 76.496601013 _1_ MAC  --- 0 RTS 44 [256e 1 0 0] 
s 76.496611013 _1_ MAC  --- 0 CTS 38 [2434 0 0 0] 
r 76.496915426 _0_ MAC  --- 0 CTS 38 [2434 0 0 0] 
s 76.496925426 _0_ MAC  --- 26 tcp 1118 [13a 1 0 800] ------- [0:0 1:0 32 1] [5 0] 0 0
r 76.505869838 _1_ MAC  --- 26 tcp 1060 [13a 1 0 800] ------- [0:0 1:0 32 1] [5 0] 1 0
s 76.505879838 _1_ MAC  --- 0 ACK 38 [0 0 0 0] 
r 76.506184250 _0_ MAC  --- 0 ACK 38 [0 0 0 0] 
s 76.506293838 _1_ MAC  --- 0 RTS 44 [62e 0 1 0] 
r 76.506646250 _0_ MAC  --- 0 RTS 44 [62e 0 1 0] 
s 76.506656250 _0_ MAC  --- 0 CTS 38 [4f4 1 0 0] 
r 76.506960662 _1_ MAC  --- 0 CTS 38 [4f4 1 0 0] 
s 76.506970662 _1_ MAC  --- 30 ack 118 [13a 0 1 800] ------- [1:0 0:0 32 0] [5 0] 0 0
r 76.507915074 _0_ MAC  --- 30 ack 60 [13a 0 1 800] ------- [1:0 0:0 32 0] [5 0] 1 0
s 76.507925074 _0_ MAC  --- 0 ACK 38 [0 1 0 0] 
r 76.508229485 _1_ MAC  --- 0 ACK 38 [0 1 0 0] 
s 76.508819074 _0_ MAC  --- 0 RTS 44 [256e 1 0 0] 
r 76.509171485 _1_ MAC  --- 0 RTS 44 [256e 1 0 0] 
s 76.509181485 _1_ MAC  --- 0 CTS 38 [2434 0 0 0] 
r 76.509485897 _0_ MAC  --- 0 CTS 38 [2434 0 0 0] 
s 76.509495897 _0_ MAC  --- 28 tcp 1118 [13a 1 0 800] ------- [0:0 1:0 32 1] [6 0] 0 0
r 76.518440309 _1_ MAC  --- 28 tcp 1060 [13a 1 0 800] ------- [0:0 1:0 32 1] [6 0] 1 0
s 76.518450309 _1_ MAC  --- 0 ACK 38 [0 0 0 0] 
r 76.518754720 _0_ MAC  --- 0 ACK 38 [0 0 0 0] 
s 76.519244720 _0_ MAC  --- 0 RTS 44 [256e 1 0 0] 
r 76.519597131 _1_ MAC  --- 0 RTS 44 [256e 1 0 0] 
s 76.519607131 _1_ MAC  --- 0 CTS 38 [2434 0 0 0] 
r 76.519911543 _0_ MAC  --- 0 CTS 38 [2434 0 0 0] 
s 76.519921543 _0_ MAC  --- 29 tcp 1118 [13a 1 0 800] ------- [0:0 1:0 32 1] [7 0] 0 0
r 76.528865954 _1_ MAC  --- 29 tcp 1060 [13a 1 0 800] ------- [0:0 1:0 32 1] [7 0] 1 0
s 76.528875954 _1_ MAC  --- 0 ACK 38 [0 0 0 0] 
r 76.529180364 _0_ MAC  --- 0 ACK 38 [0 0 0 0] 
s 76.529389954 _1_ MAC  --- 0 RTS 44 [62e 0 1 0] 
r 76.529742364 _0_ MAC  --- 0 RTS 44 [62e 0 1 0] 
s 76.529752364 _0_ MAC  --- 0 CTS 38 [4f4 1 0 0] 
r 76.530056775 _1_ MAC  --- 0 CTS 38 [4f4 1 0 0] 
s 76.530066775 _1_ MAC  --- 32 ack 118 [13a 0 1 800] ------- [1:0 0:0 32 0] [6 0] 0 0
r 76.531011186 _0_ MAC  --- 32 ack 60 [13a 0 1 800] ------- [1:0 0:0 32 0] [6 0] 1 0
s 76.531021186 _0_ MAC  --- 0 ACK 38 [0 1 0 0] 
r 76.531325596 _1_ MAC  --- 0 ACK 38 [0 1 0 0] 
s 76.531675596 _1_ MAC  --- 0 RTS 44 [62e 0 1 0] 
r 76.532028007 _0_ MAC  --- 0 RTS 44 [62e 0 1 0] 
s 76.532038007 _0_ MAC  --- 0 CTS 38 [4f4 1 0 0] 
r 76.532342418 _1_ MAC  --- 0 CTS 38 [4f4 1 0 0] 
s 76.532352418 _1_ MAC  --- 33 ack 118 [13a 0 1 800] ------- [1:0 0:0 32 0] [7 0] 0 0
r 76.533296828 _0_ MAC  --- 33 ack 60 [13a 0 1 800] ------- [1:0 0:0 32 0] [7 0] 1 0
s 76.533306828 _0_ MAC  --- 0 ACK 38 [0 1 0 0] 
r 76.533611239 _1_ MAC  --- 0 ACK 38 [0 1 0 0] 
s 76.533760828 _0_ MAC  --- 0 RTS 44 [256e 1 0 0] 
r 76.534113239 _1_ MAC  --- 0 RTS 44 [256e 1 0 0] 
s 76.534123239 _1_ MAC  --- 0 CTS 38 [2434 0 0 0] 
r 76.534427649 _0_ MAC  --- 0 CTS 38 [2434 0 0 0] 
s 76.534437649 _0_ MAC  --- 31 tcp 1118 [13a 1 0 800] ------- [0:0 1:0 32 1] [8 0] 0 0
r 76.543382060 _1_ MAC  --- 31 tcp 1060 [13a 1 0 800] ------- [0:0 1:0 32 1] [8 0] 1 0
s 76.543392060 _1_ MAC  --- 0 ACK 38 [0 0 0 0] 
r 76.543696470 _0_ MAC  --- 0 ACK 38 [0 0 0 0] 
s 76.543966060 _1_ MAC  --- 0 RTS 44 [62e 0 1 0] 
r 76.544318470 _0_ MAC  --- 0 RTS 44 [62e 0 1 0] 
s 76.544328470 _0_ MAC  --- 0 CTS 38 [4f4 1 0 0] 
r 76.544632880 _1_ MAC  --- 0 CTS 38 [4f4 1 0 0] 
s 76.544642880 _1_ MAC  --- 37 ack 118 [13a 0 1 800] ------- [1:0 0:0 32 0] [8 0] 0 0
r 76.545587290 _0_ MAC  --- 37 ack 60 [13a 0 1 800] ------- [1:0 0:0 32 0] [8 0] 1 0
s 76.545597290 _0_ MAC  --- 0 ACK 38 [0 1 0 0] 
r 76.545901699 _1_ MAC  --- 0 ACK 38 [0 1 0 0] 
s 76.546051290 _0_ MAC  --- 0 RTS 44 [256e 1 0 0] 
r 76.546403699 _1_ MAC  --- 0 RTS 44 [256e 1 0 0] 
s 76.546413699 _1_ MAC  --- 0 CTS 38 [2434 0 0 0] 
r 76.546718109 _0_ MAC  --- 0 CTS 38 [2434 0 0 0] 
s 76.546728109 _0_ MAC  --- 34 tcp 1118 [13a 1 0 800] ------- [0:0 1:0 32 1] [9 0] 0 0
r 76.555672519 _1_ MAC  --- 34 tcp 1060 [13a 1 0 800] ------- [0:0 1:0 32 1] [9 0] 1 0
s 76.555682519 _1_ MAC  --- 0 ACK 38 [0 0 0 0] 
r 76.555986929 _0_ MAC  --- 0 ACK 38 [0 0 0 0] 
s 76.556076929 _0_ MAC  --- 0 RTS 44 [256e 1 0 0] 
r 76.556429338 _1_ MAC  --- 0 RTS 44 [256e 1 0 0] 
s 76.556439338 _1_ MAC  --- 0 CTS 38 [2434 0 0 0] 
r 76.556743747 _0_ MAC  --- 0 CTS 38 [2434 0 0 0] 
s 76.556753747 _0_ MAC  --- 35 tcp 1118 [13a 1 0 800] ------- [0:0 1:0 32 1] [10 0] 0 0
r 76.565698157 _1_ MAC  --- 35 tcp 1060 [13a 1 0 800] ------- [0:0 1:0 32 1] [10 0] 1 0
s 76.565708157 _1_ MAC  --- 0 ACK 38 [0 0 0 0] 
r 76.566012566 _0_ MAC  --- 0 ACK 38 [0 0 0 0] 
s 76.566282157 _1_ MAC  --- 0 RTS 44 [62e 0 1 0] 
r 76.566634566 _0_ MAC  --- 0 RTS 44 [62e 0 1 0] 
s 76.566644566 _0_ MAC  --- 0 CTS 38 [4f4 1 0 0] 
r 76.566948974 _1_ MAC  --- 0 CTS 38 [4f4 1 0 0] 
s 76.566958974 _1_ MAC  --- 39 ack 118 [13a 0 1 800] ------- [1:0 0:0 32 0] [9 0] 0 0
r 76.567903383 _0_ MAC  --- 39 ack 60 [13a 0 1 800] ------- [1:0 0:0 32 0] [9 0] 1 0
s 76.567913383 _0_ MAC  --- 0 ACK 38 [0 1 0 0] 
r 76.568217792 _1_ MAC  --- 0 ACK 38 [0 1 0 0] 
s 76.568487792 _1_ MAC  --- 0 RTS 44 [62e 0 1 0] 
r 76.568840201 _0_ MAC  --- 0 RTS 44 [62e 0 1 0] 
s 76.568850201 _0_ MAC  --- 0 CTS 38 [4f4 1 0 0] 
r 76.569154610 _1_ MAC  --- 0 CTS 38 [4f4 1 0 0] 
s 76.569164610 _1_ MAC  --- 40 ack 118 [13a 0 1 800] ------- [1:0 0:0 32 0] [10 0] 0 0
r 76.570109018 _0_ MAC  --- 40 ack 60 [13a 0 1 800] ------- [1:0 0:0 32 0] [10 0] 1 0
s 76.570119018 _0_ MAC  --- 0 ACK 38 [0 1 0 0] 
r 76.570423427 _1_ MAC  --- 0 ACK 38 [0 1 0 0] 
s 76.570633018 _0_ MAC  --- 0 RTS 44 [256e 1 0 0] 
r 76.570985427 _1_ MAC  --- 0 RTS 44 [256e 1 0 0] 
s 76.570995427 _1_ MAC  --- 0 CTS 38 [2434 0 0 0] 
r 76.571299836 _0_ MAC  --- 0 CTS 38 [2434 0 0 0] 
s 76.571309836 _0_ MAC  --- 36 tcp 1118 [13a 1 0 800] ------- [0:0 1:0 32 1] [11 0] 0 0
r 76.580254244 _1_ MAC  --- 36 tcp 1060 [13a 1 0 800] ------- [0:0 1:0 32 1] [11 0] 1 0
s 76.580264244 _1_ MAC  --- 0 ACK 38 [0 0 0 0] 
r 76.580568652 _0_ MAC  --- 0 ACK 38 [0 0 0 0] 
s 76.580658244 _1_ MAC  --- 0 RTS 44 [62e 0 1 0] 
r 76.581010652 _0_ MAC  --- 0 RTS 44 [62e 0 1 0] 
s 76.581020652 _0_ MAC  --- 0 CTS 38 [4f4 1 0 0] 
r 76.581325060 _1_ MAC  --- 0 CTS 38 [4f4 1 0 0] 
s 76.581335060 _1_ MAC  --- 43 ack 118 [13a 0 1 800] ------- [1:0 0:0 32 0] [11 0] 0 0
r 76.582279469 _0_ MAC  --- 43 ack 60 [13a 0 1 800] ------- [1:0 0:0 32 0] [11 0] 1 0
s 76.582289469 _0_ MAC  --- 0 ACK 38 [0 1 0 0] 
r 76.582593877 _1_ MAC  --- 0 ACK 38 [0 1 0 0] 
s 76.582783469 _0_ MAC  --- 0 RTS 44 [256e 1 0 0] 
r 76.583135877 _1_ MAC  --- 0 RTS 44 [256e 1 0 0] 
s 76.583145877 _1_ MAC  --- 0 CTS 38 [2434 0 0 0] 
r 76.583450285 _0_ MAC  --- 0 CTS 38 [2434 0 0 0] 
s 76.583460285 _0_ MAC  --- 38 tcp 1118 [13a 1 0 800] ------- [0:0 1:0 32 1] [12 0] 0 0
r 76.592404693 _1_ MAC  --- 38 tcp 1060 [13a 1 0 800] ------- [0:0 1:0 32 1] [12 0] 1 0
s 76.592414693 _1_ MAC  --- 0 ACK 38 [0 0 0 0] 
r 76.592719100 _0_ MAC  --- 0 ACK 38 [0 0 0 0] 
s 76.593088693 _1_ MAC  --- 0 RTS 44 [62e 0 1 0] 
r 76.593441100 _0_ MAC  --- 0 RTS 44 [62e 0 1 0] 
s 76.593451100 _0_ MAC  --- 0 CTS 38 [4f4 1 0 0] 
r 76.593755508 _1_ MAC  --- 0 CTS 38 [4f4 1 0 0] 
s 76.593765508 _1_ MAC  --- 45 ack 118 [13a 0 1 800] ------- [1:0 0:0 32 0] [12 0] 0 0
r 76.594709915 _0_ MAC  --- 45 ack 60 [13a 0 1 800] ------- [1:0 0:0 32 0] [12 0] 1 0
s 76.594719915 _0_ MAC  --- 0 ACK 38 [0 1 0 0] 
r 76.595024323 _1_ MAC  --- 0 ACK 38 [0 1 0 0] 
s 76.595173915 _0_ MAC  --- 0 RTS 44 [256e 1 0 0] 
r 76.595526323 _1_ MAC  --- 0 RTS 44 [256e 1 0 0] 
s 76.595536323 _1_ MAC  --- 0 CTS 38 [2434 0 0 0] 
r 76.595840730 _0_ MAC  --- 0 CTS 38 [2434 0 0 0] 
s 76.595850730 _0_ MAC  --- 41 tcp 1118 [13a 1 0 800] ------- [0:0 1:0 32 1] [13 0] 0 0
r 76.604795137 _1_ MAC  --- 41 tcp 1060 [13a 1 0 800] ------- [0:0 1:0 32 1] [13 0] 1 0
s 76.604805137 _1_ MAC  --- 0 ACK 38 [0 0 0 0] 
r 76.605109544 _0_ MAC  --- 0 ACK 38 [0 0 0 0] 
s 76.605199137 _1_ MAC  --- 0 RTS 44 [62e 0 1 0] 
r 76.605551544 _0_ MAC  --- 0 RTS 44 [62e 0 1 0] 
s 76.605561544 _0_ MAC  --- 0 CTS 38 [4f4 1 0 0] 
r 76.605865951 _1_ MAC  --- 0 CTS 38 [4f4 1 0 0] 
s 76.605875951 _1_ MAC  --- 48 ack 118 [13a 0 1 800] ------- [1:0 0:0 32 0] [13 0] 0 0
r 76.606820358 _0_ MAC  --- 48 ack 60 [13a 0 1 800] ------- [1:0 0:0 32 0] [13 0] 1 0
s 76.606830358 _0_ MAC  --- 0 ACK 38 [0 1 0 0] 
r 76.607134765 _1_ MAC  --- 0 ACK 38 [0 1 0 0] 
s 76.607324358 _0_ MAC  --- 0 RTS 44 [256e 1 0 0] 
r 76.607676765 _1_ MAC  --- 0 RTS 44 [256e 1 0 0] 
s 76.607686765 _1_ MAC  --- 0 CTS 38 [2434 0 0 0] 
r 76.607991172 _0_ MAC  --- 0 CTS 38 [2434 0 0 0] 
s 76.608001172 _0_ MAC  --- 42 tcp 1118 [13a 1 0 800] ------- [0:0 1:0 32 1] [14 0] 0 0
r 76.616945579 _1_ MAC  --- 42 tcp 1060 [13a 1 0 800] ------- [0:0 1:0 32 1] [14 0] 1 0
s 76.616955579 _1_ MAC  --- 0 ACK 38 [0 0 0 0] 
r 76.617259985 _0_ MAC  --- 0 ACK 38 [0 0 0 0] 
s 76.617309985 _0_ MAC  --- 0 RTS 44 [256e 1 0 0] 
r 76.617662391 _1_ MAC  --- 0 RTS 44 [256e 1 0 0] 
s 76.617672391 _1_ MAC  --- 0 CTS 38 [2434 0 0 0] 
r 76.617976798 _0_ MAC  --- 0 CTS 38 [2434 0 0 0] 
s 76.617986798 _0_ MAC  --- 44 tcp 1118 [13a 1 0 800] ------- [0:0 1:0 32 1] [15 0] 0 0
r 76.626931204 _1_ MAC  --- 44 tcp 1060 [13a 1 0 800] ------- [0:0 1:0 32 1] [15 0] 1 0
s 76.626941204 _1_ MAC  --- 0 ACK 38 [0 0 0 0] 
r 76.627245610 _0_ MAC  --- 0 ACK 38 [0 0 0 0] 
s 76.627395204 _1_ MAC  --- 0 RTS 44 [62e 0 1 0] 
r 76.627747610 _0_ MAC  --- 0 RTS 44 [62e 0 1 0] 
s 76.627757610 _0_ MAC  --- 0 CTS 38 [4f4 1 0 0] 
r 76.628062015 _1_ MAC  --- 0 CTS 38 [4f4 1 0 0] 
s 76.628072015 _1_ MAC  --- 50 ack 118 [13a 0 1 800] ------- [1:0 0:0 32 0] [14 0] 0 0
r 76.629016421 _0_ MAC  --- 50 ack 60 [13a 0 1 800] ------- [1:0 0:0 32 0] [14 0] 1 0
s 76.629026421 _0_ MAC  --- 0 ACK 38 [0 1 0 0] 
r 76.629330827 _1_ MAC  --- 0 ACK 38 [0 1 0 0] 
s 76.629440421 _0_ MAC  --- 0 RTS 44 [256e 1 0 0] 
r 76.629792827 _1_ MAC  --- 0 RTS 44 [256e 1 0 0] 
s 76.629802827 _1_ MAC  --- 0 CTS 38 [2434 0 0 0] 
r 76.630107233 _0_ MAC  --- 0 CTS 38 [2434 0 0 0] 
s 76.630117233 _0_ MAC  --- 46 tcp 1118 [13a 1 0 800] ------- [0:0 1:0 32 1] [16 0] 0 0
r 76.639061638 _1_ MAC  --- 46 tcp 1060 [13a 1 0 800] ------- [0:0 1:0 32 1] [16 0] 1 0
s 76.639071638 _1_ MAC  --- 0 ACK 38 [0 0 0 0] 
r 76.639376044 _0_ MAC  --- 0 ACK 38 [0 0 0 0] 
s 76.639745638 _1_ MAC  --- 0 RTS 44 [62e 0 1 0] 
r 76.640098044 _0_ MAC  --- 0 RTS 44 [62e 0 1 0] 
s 76.640108044 _0_ MAC  --- 0 CTS 38 [4f4 1 0 0] 
r 76.640412449 _1_ MAC  --- 0 CTS 38 [4f4 1 0 0] 
s 76.640422449 _1_ MAC  --- 51 ack 118 [13a 0 1 800] ------- [1:0 0:0 32 0] [15 0] 0 0
r 76.641366854 _0_ MAC  --- 51 ack 60 [13a 0 1 800] ------- [1:0 0:0 32 0] [15 0] 1 0
s 76.641376854 _0_ MAC  --- 0 ACK 38 [0 1 0 0] 
r 76.641681259 _1_ MAC  --- 0 ACK 38 [0 1 0 0] 
s 76.641750854 _0_ MAC  --- 0 RTS 44 [256e 1 0 0] 
r 76.642103259 _1_ MAC  --- 0 RTS 44 [256e 1 0 0] 
s 76.642113259 _1_ MAC  --- 0 CTS 38 [2434 0 0 0] 
r 76.642417664 _0_ MAC  --- 0 CTS 38 [2434 0 0 0] 
s 76.642427664 _0_ MAC  --- 47 tcp 1118 [13a 1 0 800] ------- [0:0 1:0 32 1] [17 0] 0 0
r 76.651372069 _1_ MAC  --- 47 tcp 1060 [13a 1 0 800] ------- [0:0 1:0 32 1] [17 0] 1 0
s 76.651382069 _1_ MAC  --- 0 ACK 38 [0 0 0 0] 
r 76.651686474 _0_ MAC  --- 0 ACK 38 [0 0 0 0] 
s 76.652156069 _1_ MAC  --- 0 RTS 44 [62e 0 1 0] 
r 76.652508474 _0_ MAC  --- 0 RTS 44 [62e 0 1 0] 
s 76.652518474 _0_ MAC  --- 0 CTS 38 [4f4 1 0 0] 
r 76.652822878 _1_ MAC  --- 0 CTS 38 [4f4 1 0 0] 
s 76.652832878 _1_ MAC  --- 53 ack 118 [13a 0 1 800] ------- [1:0 0:0 32 0] [16 0] 0 0
r 76.653777283 _0_ MAC  --- 53 ack 60 [13a 0 1 800] ------- [1:0 0:0 32 0] [16 0] 1 0
s 76.653787283 _0_ MAC  --- 0 ACK 38 [0 1 0 0] 
r 76.654091687 _1_ MAC  --- 0 ACK 38 [0 1 0 0] 
s 76.654241283 _0_ MAC  --- 0 RTS 44 [256e 1 0 0] 
r 76.654593687 _1_ MAC  --- 0 RTS 44 [256e 1 0 0] 
s 76.654603687 _1_ MAC  --- 0 CTS 38 [2434 0 0 0] 
r 76.654908092 _0_ MAC  --- 0 CTS 38 [2434 0 0 0] 
s 76.654918092 _0_ MAC  --- 49 tcp 1118 [13a 1 0 800] ------- [0:0 1:0 32 1] [18 0] 0 0
r 76.663862496 _1_ MAC  --- 49 tcp 1060 [13a 1 0 800] ------- [0:0 1:0 32 1] [18 0] 1 0
s 76.663872496 _1_ MAC  --- 0 ACK 38 [0 0 0 0] 
r 76.664176900 _0_ MAC  --- 0 ACK 38 [0 0 0 0] 
s 76.664386900 _0_ MAC  --- 0 RTS 44 [256e 1 0 0] 
r 76.664739304 _1_ MAC  --- 0 RTS 44 [256e 1 0 0] 
s 76.664749304 _1_ MAC  --- 0 CTS 38 [2434 0 0 0] 
r 76.665053708 _0_ MAC  --- 0 CTS 38 [2434 0 0 0] 
s 76.665063708 _0_ MAC  --- 52 tcp 1118 [13a 1 0 800] ------- [0:0 1:0 32 1] [19 0] 0 0
r 76.674008112 _1_ MAC  --- 52 tcp 1060 [13a 1 0 800] ------- [0:0 1:0 32 1] [19 0] 1 0
s 76.674018112 _1_ MAC  --- 0 ACK 38 [0 0 0 0] 
r 76.674322516 _0_ MAC  --- 0 ACK 38 [0 0 0 0] 
s 76.674392516 _0_ MAC  --- 0 RTS 44 [256e 1 0 0] 
r 76.674744919 _1_ MAC  --- 0 RTS 44 [256e 1 0 0] 
s 76.674754919 _1_ MAC  --- 0 CTS 38 [2434 0 0 0] 
r 76.675059322 _0_ MAC  --- 0 CTS 38 [2434 0 0 0] 
s 76.675069322 _0_ MAC  --- 54 tcp 1118 [13a 1 0 800] ------- [0:0 1:0 32 1] [20 0] 0 0
r 76.684013726 _1_ MAC  --- 54 tcp 1060 [13a 1 0 800] ------- [0:0 1:0 32 1] [20 0] 1 0
s 76.684023726 _1_ MAC  --- 0 ACK 38 [0 0 0 0] 
r 76.684328129 _0_ MAC  --- 0 ACK 38 [0 0 0 0] 
s 76.684437726 _1_ MAC  --- 0 RTS 44 [62e 0 1 0] 
r 76.684790129 _0_ MAC  --- 0 RTS 44 [62e 0 1 0] 
s 76.684800129 _0_ MAC  --- 0 CTS 38 [4f4 1 0 0] 
r 76.685104532 _1_ MAC  --- 0 CTS 38 [4f4 1 0 0] 
s 76.685114532 _1_ MAC  --- 55 ack 118 [13a 0 1 800] ------- [1:0 0:0 32 0] [17 0] 0 0
r 76.686058935 _0_ MAC  --- 55 ack 60 [13a 0 1 800] ------- [1:0 0:0 32 0] [17 0] 1 0
s 76.686068935 _0_ MAC  --- 0 ACK 38 [0 1 0 0] 
r 76.686373338 _1_ MAC  --- 0 ACK 38 [0 1 0 0] 
s 76.686523338 _1_ MAC  --- 0 RTS 44 [62e 0 1 0] 
r 76.686875740 _0_ MAC  --- 0 RTS 44 [62e 0 1 0] 
s 76.686885740 _0_ MAC  --- 0 CTS 38 [4f4 1 0 0] 
r 76.687190143 _1_ MAC  --- 0 CTS 38 [4f4 1 0 0] 
s 76.687200143 _1_ MAC  --- 57 ack 118 [13a 0 1 800] ------- [1:0 0:0 32 0] [18 0] 0 0
r 76.688144546 _0_ MAC  --- 57 ack 60 [13a 0 1 800] ------- [1:0 0:0 32 0] [18 0] 1 0
s 76.688154546 _0_ MAC  --- 0 ACK 38 [0 1 0 0] 
r 76.688458949 _1_ MAC  --- 0 ACK 38 [0 1 0 0] 
s 76.688508949 _1_ MAC  --- 0 RTS 44 [62e 0 1 0] 
r 76.688861352 _0_ MAC  --- 0 RTS 44 [62e 0 1 0] 
s 76.688871352 _0_ MAC  --- 0 CTS 38 [4f4 1 0 0] 
r 76.689175754 _1_ MAC  --- 0 CTS 38 [4f4 1 0 0] 
s 76.689185754 _1_ MAC  --- 58 ack 118 [13a 0 1 800] ------- [1:0 0:0 32 0] [19 0] 0 0
r 76.690130157 _0_ MAC  --- 58 ack 60 [13a 0 1 800] ------- [1:0 0:0 32 0] [19 0] 1 0
s 76.690140157 _0_ MAC  --- 0 ACK 38 [0 1 0 0] 
r 76.690444560 _1_ MAC  --- 0 ACK 38 [0 1 0 0] 
s 76.690554560 _1_ MAC  --- 0 RTS 44 [62e 0 1 0] 
r 76.690906963 _0_ MAC  --- 0 RTS 44 [62e 0 1 0] 
s 76.690916963 _0_ MAC  --- 0 CTS 38 [4f4 1 0 0] 
r 76.691221365 _1_ MAC  --- 0 CTS 38 [4f4 1 0 0] 
s 76.691231365 _1_ MAC  --- 59 ack 118 [13a 0 1 800] ------- [1:0 0:0 32 0] [20 0] 0 0
r 76.692175768 _0_ MAC  --- 59 ack 60 [13a 0 1 800] ------- [1:0 0:0 32 0] [20 0] 1 0
s 76.692185768 _0_ MAC  --- 0 ACK 38 [0 1 0 0] 
r 76.692490170 _1_ MAC  --- 0 ACK 38 [0 1 0 0] 
s 76.692599768 _0_ MAC  --- 0 RTS 44 [256e 1 0 0] 
r 76.692952170 _1_ MAC  --- 0 RTS 44 [256e 1 0 0] 
s 76.692962170 _1_ MAC  --- 0 CTS 38 [2434 0 0 0] 
r 76.693266573 _0_ MAC  --- 0 CTS 38 [2434 0 0 0] 
s 76.693276573 _0_ MAC  --- 56 tcp 1118 [13a 1 0 800] ------- [0:0 1:0 32 1] [21 0] 0 0
r 76.702220975 _1_ MAC  --- 56 tcp 1060 [13a 1 0 800] ------- [0:0 1:0 32 1] [21 0] 1 0
s 76.702230975 _1_ MAC  --- 0 ACK 38 [0 0 0 0] 
r 76.702535377 _0_ MAC  --- 0 ACK 38 [0 0 0 0] 
s 76.703064975 _1_ MAC  --- 0 RTS 44 [62e 0 1 0] 
r 76.703417377 _0_ MAC  --- 0 RTS 44 [62e 0 1 0] 
s 76.703427377 _0_ MAC  --- 0 CTS 38 [4f4 1 0 0] 
r 76.703731779 _1_ MAC  --- 0 CTS 38 [4f4 1 0 0] 
s 76.703741779 _1_ MAC  --- 65 ack 118 [13a 0 1 800] ------- [1:0 0:0 32 0] [21 0] 0 0
r 76.704686181 _0_ MAC  --- 65 ack 60 [13a 0 1 800] ------- [1:0 0:0 32 0] [21 0] 1 0
s 76.704696181 _0_ MAC  --- 0 ACK 38 [0 1 0 0] 
r 76.705000583 _1_ MAC  --- 0 ACK 38 [0 1 0 0] 
s 76.705190181 _0_ MAC  --- 0 RTS 44 [256e 1 0 0] 
r 76.705542583 _1_ MAC  --- 0 RTS 44 [256e 1 0 0] 
s 76.705552583 _1_ MAC  --- 0 CTS 38 [2434 0 0 0] 
r 76.705856985 _0_ MAC  --- 0 CTS 38 [2434 0 0 0] 
s 76.705866985 _0_ MAC  --- 60 tcp 1118 [13a 1 0 800] ------- [0:0 1:0 32 1] [22 0] 0 0
r 76.714811387 _1_ MAC  --- 60 tcp 1060 [13a 1 0 800] ------- [0:0 1:0 32 1] [22 0] 1 0
s 76.714821387 _1_ MAC  --- 0 ACK 38 [0 0 0 0] 
r 76.715125789 _0_ MAC  --- 0 ACK 38 [0 0 0 0] 
s 76.715195789 _0_ MAC  --- 0 RTS 44 [256e 1 0 0] 
r 76.715548190 _1_ MAC  --- 0 RTS 44 [256e 1 0 0] 
s 76.715558190 _1_ MAC  --- 0 CTS 38 [2434 0 0 0] 
r 76.715862591 _0_ MAC  --- 0 CTS 38 [2434 0 0 0] 
s 76.715872591 _0_ MAC  --- 61 tcp 1118 [13a 1 0 800] ------- [0:0 1:0 32 1] [23 0] 0 0
r 76.724816993 _1_ MAC  --- 61 tcp 1060 [13a 1 0 800] ------- [0:0 1:0 32 1] [23 0] 1 0
s 76.724826993 _1_ MAC  --- 0 ACK 38 [0 0 0 0] 
r 76.725131394 _0_ MAC  --- 0 ACK 38 [0 0 0 0] 
s 76.725201394 _0_ MAC  --- 0 RTS 44 [256e 1 0 0] 
r 76.725553795 _1_ MAC  --- 0 RTS 44 [256e 1 0 0] 
s 76.725563795 _1_ MAC  --- 0 CTS 38 [2434 0 0 0] 
r 76.725868196 _0_ MAC  --- 0 CTS 38 [2434 0 0 0] 
s 76.725878196 _0_ MAC  --- 62 tcp 1118 [13a 1 0 800] ------- [0:0 1:0 32 1] [24 0] 0 0
r 76.734822597 _1_ MAC  --- 62 tcp 1060 [13a 1 0 800] ------- [0:0 1:0 32 1] [24 0] 1 0
s 76.734832597 _1_ MAC  --- 0 ACK 38 [0 0 0 0] 
r 76.735136997 _0_ MAC  --- 0 ACK 38 [0 0 0 0] 
s 76.735246997 _0_ MAC  --- 0 RTS 44 [256e 1 0 0] 
r 76.735599397 _1_ MAC  --- 0 RTS 44 [256e 1 0 0] 
s 76.735609397 _1_ MAC  --- 0 CTS 38 [2434 0 0 0] 
r 76.735913798 _0_ MAC  --- 0 CTS 38 [2434 0 0 0] 
s 76.735923798 _0_ MAC  --- 63 tcp 1118 [13a 1 0 800] ------- [0:0 1:0 32 1] [25 0] 0 0
r 76.744868198 _1_ MAC  --- 63 tcp 1060 [13a 1 0 800] ------- [0:0 1:0 32 1] [25 0] 1 0
s 76.744878198 _1_ MAC  --- 0 ACK 38 [0 0 0 0] 
r 76.745182598 _0_ MAC  --- 0 ACK 38 [0 0 0 0] 
s 76.745432198 _1_ MAC  --- 0 RTS 44 [62e 0 1 0] 
r 76.745784598 _0_ MAC  --- 0 RTS 44 [62e 0 1 0] 
s 76.745794598 _0_ MAC  --- 0 CTS 38 [4f4 1 0 0] 
r 76.746098998 _1_ MAC  --- 0 CTS 38 [4f4 1 0 0] 
s 76.746108998 _1_ MAC  --- 67 ack 118 [13a 0 1 800] ------- [1:0 0:0 32 0] [22 0] 0 0
r 76.747053398 _0_ MAC  --- 67 ack 60 [13a 0 1 800] ------- [1:0 0:0 32 0] [22 0] 1 0
s 76.747063398 _0_ MAC  --- 0 ACK 38 [0 1 0 0] 
r 76.747367798 _1_ MAC  --- 0 ACK 38 [0 1 0 0] 
s 76.747437798 _1_ MAC  --- 0 RTS 44 [62e 0 1 0] 
r 76.747790198 _0_ MAC  --- 0 RTS 44 [62e 0 1 0] 
s 76.747800198 _0_ MAC  --- 0 CTS 38 [4f4 1 0 0] 
r 76.748104597 _1_ MAC  --- 0 CTS 38 [4f4 1 0 0] 
s 76.748114597 _1_ MAC  --- 68 ack 118 [13a 0 1 800] ------- [1:0 0:0 32 0] [23 0] 0 0
r 76.749058997 _0_ MAC  --- 68 ack 60 [13a 0 1 800] ------- [1:0 0:0 32 0] [23 0] 1 0
s 76.749068997 _0_ MAC  --- 0 ACK 38 [0 1 0 0] 
r 76.749373397 _1_ MAC  --- 0 ACK 38 [0 1 0 0] 
s 76.749443397 _1_ MAC  --- 0 RTS 44 [62e 0 1 0] 
r 76.749795797 _0_ MAC  --- 0 RTS 44 [62e 0 1 0] 
s 76.749805797 _0_ MAC  --- 0 CTS 38 [4f4 1 0 0] 
r 76.750110196 _1_ MAC  --- 0 CTS 38 [4f4 1 0 0] 
s 76.750120196 _1_ MAC  --- 69 ack 118 [13a 0 1 800] ------- [1:0 0:0 32 0] [24 0] 0 0
r 76.751064596 _0_ MAC  --- 69 ack 60 [13a 0 1 800] ------- [1:0 0:0 32 0] [24 0] 1 0
s 76.751074596 _0_ MAC  --- 0 ACK 38 [0 1 0 0] 
r 76.751378996 _1_ MAC  --- 0 ACK 38 [0 1 0 0] 
s 76.751468596 _0_ MAC  --- 0 RTS 44 [256e 1 0 0] 
r 76.751820996 _1_ MAC  --- 0 RTS 44 [256e 1 0 0] 
s 76.751830996 _1_ MAC  --- 0 CTS 38 [2434 0 0 0] 
r 76.752135395 _0_ MAC  --- 0 CTS 38 [2434 0 0 0] 
s 76.752145395 _0_ MAC  --- 64 tcp 1118 [13a 1 0 800] ------- [0:0 1:0 32 1] [26 0] 0 0
r 76.761089795 _1_ MAC  --- 64 tcp 1060 [13a 1 0 800] ------- [0:0 1:0 32 1] [26 0] 1 0
s 76.761099795 _1_ MAC  --- 0 ACK 38 [0 0 0 0] 
r 76.761404194 _0_ MAC  --- 0 ACK 38 [0 0 0 0] 
s 76.761813795 _1_ MAC  --- 0 RTS 44 [62e 0 1 0] 
r 76.762166194 _0_ MAC  --- 0 RTS 44 [62e 0 1 0] 
s 76.762176194 _0_ MAC  --- 0 CTS 38 [4f4 1 0 0] 
r 76.762480593 _1_ MAC  --- 0 CTS 38 [4f4 1 0 0] 
s 76.762490593 _1_ MAC  --- 70 ack 118 [13a 0 1 800] ------- [1:0 0:0 32 0] [25 0] 0 0
r 76.763434992 _0_ MAC  --- 70 ack 60 [13a 0 1 800] ------- [1:0 0:0 32 0] [25 0] 1 0
s 76.763444992 _0_ MAC  --- 0 ACK 38 [0 1 0 0] 
r 76.763749391 _1_ MAC  --- 0 ACK 38 [0 1 0 0] 
s 76.763898992 _0_ MAC  --- 0 RTS 44 [256e 1 0 0] 
r 76.764251391 _1_ MAC  --- 0 RTS 44 [256e 1 0 0] 
s 76.764261391 _1_ MAC  --- 0 CTS 38 [2434 0 0 0] 
r 76.764565790 _0_ MAC  --- 0 CTS 38 [2434 0 0 0] 
s 76.764575790 _0_ MAC  --- 66 tcp 1118 [13a 1 0 800] ------- [0:0 1:0 32 1] [27 0] 0 0
r 76.773520189 _1_ MAC  --- 66 tcp 1060 [13a 1 0 800] ------- [0:0 1:0 32 1] [27 0] 1 0
s 76.773530189 _1_ MAC  --- 0 ACK 38 [0 0 0 0] 
r 76.773834587 _0_ MAC  --- 0 ACK 38 [0 0 0 0] 
s 76.774184189 _1_ MAC  --- 0 RTS 44 [62e 0 1 0] 
r 76.774536587 _0_ MAC  --- 0 RTS 44 [62e 0 1 0] 
s 76.774546587 _0_ MAC  --- 0 CTS 38 [4f4 1 0 0] 
r 76.774850986 _1_ MAC  --- 0 CTS 38 [4f4 1 0 0] 
s 76.774860986 _1_ MAC  --- 75 ack 118 [13a 0 1 800] ------- [1:0 0:0 32 0] [26 0] 0 0